<?xml version="1.0" encoding="ISO-8859-1"?>
<modeling>
 <generator>
  <i name="program" type="string">vasp </i>
  <i name="version" type="string">5.4.4.18Apr17-6-g9f103f2a35  </i>
  <i name="subversion" type="string">(build Aug 22 2019 09:35:51) complex            parallel </i>
  <i name="platform" type="string">LinuxIFC </i>
  <i name="date" type="string">2021 07 13 </i>
  <i name="time" type="string">15:31:24 </i>
 </generator>
 <incar>
  <i type="string" name="PREC">accurate</i>
  <i type="string" name="ALGO"> Fast</i>
  <i type="int" name="ISPIN">     2</i>
  <i type="int" name="NELM">   100</i>
  <i type="int" name="NELMIN">     1</i>
  <i type="int" name="IBRION">     2</i>
  <i name="EDIFF">      0.00040000</i>
  <i name="EDIFFG">     -0.05000000</i>
  <i type="int" name="NSW">     3</i>
  <i type="int" name="ISIF">     3</i>
  <i name="ENCUT">    520.00000000</i>
  <v name="MAGMOM">      0.60000000      0.60000000      0.60000000      0.60000000      0.60000000      0.60000000      0.60000000      0.60000000</v>
  <i type="string" name="LREAL"> Auto</i>
  <i type="int" name="ISMEAR">    -5</i>
  <i name="SIGMA">      0.05000000</i>
  <i type="logical" name="LWAVE"> F  </i>
  <i type="int" name="LORBIT">    11</i>
  <i type="logical" name="LASPH"> T  </i>
  <v type="int" name="KPOINT_BSE">    -1     0     0     0</v>
  <i type="int" name="NELM">   100</i>
  <i type="logical" name="LASPH"> T  </i>
 </incar>
 <structure name="primitive_cell" >
  <crystal>
   <varray name="basis" >
    <v>      -2.76157250       0.00000000       2.73436400 </v>
    <v>      -2.76157250       0.00000000      -2.73436400 </v>
    <v>       2.76157250      -2.73436400       0.00000000 </v>
   </varray>
   <i name="volume">     41.29515496 </i>
   <varray name="rec_basis" >
    <v>      -0.18105626      -0.18285788       0.18285788 </v>
    <v>      -0.18105626      -0.18285788      -0.18285788 </v>
    <v>       0.00000000      -0.36571576       0.00000000 </v>
   </varray>
  </crystal>
  <varray name="positions" >
   <v>      -0.25000000       0.25000000      -0.50000000 </v>
   <v>       0.00000000       0.00000000       0.00000000 </v>
  </varray>
 </structure>
 <varray name="primitive_index" >
  <v type="int" >        1 </v>
  <v type="int" >        2 </v>
 </varray>
 <kpoints>
  <generation param="Gamma">
   <v type="int" name="divisions">       4        4        4 </v>
   <v name="usershift">      0.00000000       0.00000000       0.00000000 </v>
   <v name="genvec1">      0.25000000       0.00000000       0.00000000 </v>
   <v name="genvec2">      0.00000000       0.25000000       0.00000000 </v>
   <v name="genvec3">      0.00000000       0.00000000       0.25000000 </v>
   <v name="shift">      0.00000000       0.00000000       0.00000000 </v>
  </generation>
  <varray name="kpointlist" >
   <v>       0.00000000       0.00000000       0.00000000 </v>
   <v>       0.25000000       0.00000000       0.00000000 </v>
   <v>       0.50000000       0.00000000       0.00000000 </v>
   <v>       0.00000000       0.25000000       0.00000000 </v>
   <v>       0.25000000       0.25000000       0.00000000 </v>
   <v>       0.50000000       0.25000000       0.00000000 </v>
   <v>       0.00000000       0.50000000       0.00000000 </v>
   <v>       0.25000000       0.50000000       0.00000000 </v>
   <v>       0.50000000       0.50000000       0.00000000 </v>
   <v>       0.00000000       0.25000000       0.25000000 </v>
   <v>       0.25000000       0.25000000       0.25000000 </v>
   <v>       0.50000000       0.25000000       0.25000000 </v>
   <v>       0.00000000       0.50000000       0.25000000 </v>
   <v>       0.25000000       0.50000000       0.25000000 </v>
   <v>       0.50000000       0.50000000       0.25000000 </v>
   <v>       0.00000000       0.50000000       0.50000000 </v>
   <v>       0.25000000       0.50000000       0.50000000 </v>
   <v>       0.50000000       0.50000000       0.50000000 </v>
  </varray>
  <varray name="weights" >
   <v>       0.01562500 </v>
   <v>       0.03125000 </v>
   <v>       0.01562500 </v>
   <v>       0.06250000 </v>
   <v>       0.12500000 </v>
   <v>       0.06250000 </v>
   <v>       0.03125000 </v>
   <v>       0.06250000 </v>
   <v>       0.03125000 </v>
   <v>       0.06250000 </v>
   <v>       0.12500000 </v>
   <v>       0.06250000 </v>
   <v>       0.06250000 </v>
   <v>       0.12500000 </v>
   <v>       0.06250000 </v>
   <v>       0.01562500 </v>
   <v>       0.03125000 </v>
   <v>       0.01562500 </v>
  </varray>
  <varray name="tetrahedronlist"  type="int" >
   <v type="int" >        4        1        2        4        5 </v>
   <v type="int" >        4        1        4        4        5 </v>
   <v type="int" >        4        4        4        5       10 </v>
   <v type="int" >        4        2        4        5        5 </v>
   <v type="int" >        4        4        5        5       11 </v>
   <v type="int" >        4        4        5       10       11 </v>
   <v type="int" >        4        2        3        5        6 </v>
   <v type="int" >        4        2        5        5        6 </v>
   <v type="int" >        4        5        5        6       11 </v>
   <v type="int" >        4        3        5        6        6 </v>
   <v type="int" >        4        5        6        6       12 </v>
   <v type="int" >        4        5        6       11       12 </v>
   <v type="int" >        4        4        5        8       10 </v>
   <v type="int" >        4        4        7        8       10 </v>
   <v type="int" >        4        7        8       10       13 </v>
   <v type="int" >        4        5        8       10       11 </v>
   <v type="int" >        4        8       10       11       14 </v>
   <v type="int" >        4        8       10       13       14 </v>
   <v type="int" >        4        5        6        9       11 </v>
   <v type="int" >        4        5        8        9       11 </v>
   <v type="int" >        4        8        9       11       14 </v>
   <v type="int" >        4        6        9       11       12 </v>
   <v type="int" >        4        9       11       12       15 </v>
   <v type="int" >        4        9       11       14       15 </v>
   <v type="int" >        4        5        6        8       12 </v>
   <v type="int" >        4        6        8        9       12 </v>
   <v type="int" >        4        8        9       12       15 </v>
   <v type="int" >        4        5        8       11       12 </v>
   <v type="int" >        4        8       11       12       14 </v>
   <v type="int" >        4        8       12       14       15 </v>
   <v type="int" >        4        4        5        7       11 </v>
   <v type="int" >        4        5        7        8       11 </v>
   <v type="int" >        4        7        8       11       14 </v>
   <v type="int" >        4        4        7       10       11 </v>
   <v type="int" >        4        7       10       11       13 </v>
   <v type="int" >        4        7       11       13       14 </v>
   <v type="int" >        4        5        7        8       13 </v>
   <v type="int" >        4        4        5        7       13 </v>
   <v type="int" >        4        4        5       10       13 </v>
   <v type="int" >        4        5        8       13       14 </v>
   <v type="int" >        4        5       11       13       14 </v>
   <v type="int" >        4        5       10       11       13 </v>
   <v type="int" >        4        6        8        9       14 </v>
   <v type="int" >        4        5        6        8       14 </v>
   <v type="int" >        4        5        6       11       14 </v>
   <v type="int" >        4        6        9       14       15 </v>
   <v type="int" >        4        6       12       14       15 </v>
   <v type="int" >        4        6       11       12       14 </v>
   <v type="int" >        4        5        8        9       15 </v>
   <v type="int" >        4        5        6        9       15 </v>
   <v type="int" >        4        5        6       12       15 </v>
   <v type="int" >        4        5        8       14       15 </v>
   <v type="int" >        4        5       11       14       15 </v>
   <v type="int" >        4        5       11       12       15 </v>
   <v type="int" >        4        4        7        8       14 </v>
   <v type="int" >        4        4        5        8       14 </v>
   <v type="int" >        4        4        5       11       14 </v>
   <v type="int" >        4        4        7       13       14 </v>
   <v type="int" >        4        4       10       13       14 </v>
   <v type="int" >        4        4       10       11       14 </v>
   <v type="int" >        4        2        4        5       10 </v>
   <v type="int" >        4        1        2        4       10 </v>
   <v type="int" >        4        2        5       10       11 </v>
   <v type="int" >        4        3        5        6       11 </v>
   <v type="int" >        4        2        3        5       11 </v>
   <v type="int" >        4        3        6       11       12 </v>
   <v type="int" >        4        2        5        6       12 </v>
   <v type="int" >        4        2        3        6       12 </v>
   <v type="int" >        4        2        5       11       12 </v>
   <v type="int" >        4        1        4        5       11 </v>
   <v type="int" >        4        1        2        5       11 </v>
   <v type="int" >        4        1        4       10       11 </v>
   <v type="int" >        4       10       11       13       14 </v>
   <v type="int" >        4       10       13       13       14 </v>
   <v type="int" >        4       13       13       14       16 </v>
   <v type="int" >        4       11       13       14       14 </v>
   <v type="int" >        4       13       14       14       17 </v>
   <v type="int" >        4       13       14       16       17 </v>
   <v type="int" >        4       11       12       14       15 </v>
   <v type="int" >        4       11       14       14       15 </v>
   <v type="int" >        4       14       14       15       17 </v>
   <v type="int" >        4       12       14       15       15 </v>
   <v type="int" >        4       14       15       15       18 </v>
   <v type="int" >        4       14       15       17       18 </v>
   <v type="int" >        4       11       13       14       16 </v>
   <v type="int" >        4       10       11       13       16 </v>
   <v type="int" >        4       11       14       16       17 </v>
   <v type="int" >        4       12       14       15       17 </v>
   <v type="int" >        4       11       12       14       17 </v>
   <v type="int" >        4       12       15       17       18 </v>
   <v type="int" >        4       11       14       15       18 </v>
   <v type="int" >        4       11       12       15       18 </v>
   <v type="int" >        4       11       14       17       18 </v>
   <v type="int" >        4       10       13       14       17 </v>
   <v type="int" >        4       10       11       14       17 </v>
   <v type="int" >        4       10       13       16       17 </v>
  </varray>
  <i name="volumeweight">      0.00260417 </i>
 </kpoints>
 <parameters>
  <separator name="general" >
   <i type="string" name="SYSTEM">unknown system</i>
   <i type="logical" name="LCOMPAT"> F  </i>
  </separator>
  <separator name="electronic" >
   <i type="string" name="PREC">accura</i>
   <i name="ENMAX">    520.00000000</i>
   <i name="ENAUG">    322.06900000</i>
   <i name="EDIFF">      0.00040000</i>
   <i type="int" name="IALGO">    68</i>
   <i type="int" name="IWAVPR">    11</i>
   <i type="int" name="NBANDS">    24</i>
   <i name="NELECT">     32.00000000</i>
   <i type="int" name="TURBO">     0</i>
   <i type="int" name="IRESTART">     0</i>
   <i type="int" name="NREBOOT">     0</i>
   <i type="int" name="NMIN">     0</i>
   <i name="EREF">      0.00000000</i>
   <separator name="electronic smearing" >
    <i type="int" name="ISMEAR">    -5</i>
    <i name="SIGMA">      0.05000000</i>
    <i name="KSPACING">      0.50000000</i>
    <i type="logical" name="KGAMMA"> T  </i>
   </separator>
   <separator name="electronic projectors" >
    <i type="logical" name="LREAL"> T  </i>
    <v name="ROPT">     -0.00025000</v>
    <i type="int" name="LMAXPAW">  -100</i>
    <i type="int" name="LMAXMIX">     2</i>
    <i type="logical" name="NLSPLINE"> F  </i>
   </separator>
   <separator name="electronic startup" >
    <i type="int" name="ISTART">     0</i>
    <i type="int" name="ICHARG">     2</i>
    <i type="int" name="INIWAV">     1</i>
   </separator>
   <separator name="electronic spin" >
    <i type="int" name="ISPIN">     2</i>
    <i type="logical" name="LNONCOLLINEAR"> F  </i>
    <v name="MAGMOM">      0.60000000      0.60000000      0.60000000      0.60000000      0.60000000      0.60000000      0.60000000      0.60000000</v>
    <i name="NUPDOWN">     -1.00000000</i>
    <i type="logical" name="LSORBIT"> F  </i>
    <v name="SAXIS">      0.00000000      0.00000000      1.00000000</v>
    <i type="logical" name="LSPIRAL"> F  </i>
    <v name="QSPIRAL">      0.00000000      0.00000000      0.00000000</v>
    <i type="logical" name="LZEROZ"> F  </i>
   </separator>
   <separator name="electronic exchange-correlation" >
    <i type="logical" name="LASPH"> T  </i>
    <i type="logical" name="LMETAGGA"> F  </i>
   </separator>
   <separator name="electronic convergence" >
    <i type="int" name="NELM">   100</i>
    <i type="int" name="NELMDL">    -5</i>
    <i type="int" name="NELMIN">     1</i>
    <i name="ENINI">    520.00000000</i>
    <separator name="electronic convergence detail" >
     <i type="logical" name="LDIAG"> T  </i>
     <i type="logical" name="LSUBROT"> F  </i>
     <i name="WEIMIN">      0.00100000</i>
     <i name="EBREAK">      0.00000417</i>
     <i name="DEPER">      0.30000000</i>
     <i type="int" name="NRMM">     4</i>
     <i name="TIME">      0.40000000</i>
    </separator>
   </separator>
   <separator name="electronic mixer" >
    <i name="AMIX">      0.40000000</i>
    <i name="BMIX">      1.00000000</i>
    <i name="AMIN">      0.10000000</i>
    <i name="AMIX_MAG">      1.60000000</i>
    <i name="BMIX_MAG">      1.00000000</i>
    <separator name="electronic mixer details" >
     <i type="int" name="IMIX">     4</i>
     <i type="logical" name="MIXFIRST"> F  </i>
     <i type="int" name="MAXMIX">   -45</i>
     <i name="WC">    100.00000000</i>
     <i type="int" name="INIMIX">     1</i>
     <i type="int" name="MIXPRE">     1</i>
     <i type="int" name="MREMOVE">     5</i>
    </separator>
   </separator>
   <separator name="electronic dipolcorrection" >
    <i type="logical" name="LDIPOL"> F  </i>
    <i type="logical" name="LMONO"> F  </i>
    <i type="int" name="IDIPOL">     0</i>
    <i name="EPSILON">      1.00000000</i>
    <v name="DIPOL">   -100.00000000   -100.00000000   -100.00000000</v>
    <i name="EFIELD">      0.00000000</i>
   </separator>
  </separator>
  <separator name="grids" >
   <i type="int" name="NGX">    42</i>
   <i type="int" name="NGY">    42</i>
   <i type="int" name="NGZ">    42</i>
   <i type="int" name="NGXF">    84</i>
   <i type="int" name="NGYF">    84</i>
   <i type="int" name="NGZF">    84</i>
   <i type="logical" name="ADDGRID"> F  </i>
  </separator>
  <separator name="ionic" >
   <i type="int" name="NSW">     3</i>
   <i type="int" name="IBRION">     2</i>
   <i type="int" name="MDALGO">     0</i>
   <i type="int" name="ISIF">     3</i>
   <i name="PSTRESS">      0.00000000</i>
   <i name="EDIFFG">     -0.05000000</i>
   <i type="int" name="NFREE">     1</i>
   <i name="POTIM">      0.50000000</i>
   <i name="SMASS">     -3.00000000</i>
   <i name="SCALEE">      1.00000000</i>
  </separator>
  <separator name="ionic md" >
   <i name="TEBEG">      0.00010000</i>
   <i name="TEEND">      0.00010000</i>
   <i type="int" name="NBLOCK">     1</i>
   <i type="int" name="KBLOCK">     3</i>
   <i type="int" name="NPACO">   256</i>
   <i name="APACO">     16.00000000</i>
  </separator>
  <separator name="symmetry" >
   <i type="int" name="ISYM">     2</i>
   <i name="SYMPREC">      0.00001000</i>
  </separator>
  <separator name="dos" >
   <i type="int" name="LORBIT">    11</i>
   <v name="RWIGS">     -1.00000000</v>
   <i type="int" name="NEDOS">   301</i>
   <i name="EMIN">     10.00000000</i>
   <i name="EMAX">    -10.00000000</i>
   <i name="EFERMI">      0.00000000</i>
  </separator>
  <separator name="writing" >
   <i type="int" name="NWRITE">     2</i>
   <i type="logical" name="LWAVE"> F  </i>
   <i type="logical" name="LDOWNSAMPLE"> F  </i>
   <i type="logical" name="LCHARG"> T  </i>
   <i type="logical" name="LPARD"> F  </i>
   <i type="logical" name="LVTOT"> F  </i>
   <i type="logical" name="LVHAR"> F  </i>
   <i type="logical" name="LELF"> F  </i>
   <i type="logical" name="LOPTICS"> F  </i>
   <v name="STM">      0.00000000      0.00000000      0.00000000      0.00000000      0.00000000      0.00000000      0.00000000</v>
  </separator>
  <separator name="performance" >
   <i type="int" name="NPAR">     6</i>
   <i type="int" name="NSIM">     4</i>
   <i type="int" name="NBLK">    -1</i>
   <i type="logical" name="LPLANE"> T  </i>
   <i type="logical" name="LSCALAPACK"> F  </i>
   <i type="logical" name="LSCAAWARE"> F  </i>
   <i type="logical" name="LSCALU"> F  </i>
   <i type="logical" name="LASYNC"> F  </i>
   <i type="logical" name="LORBITALREAL"> F  </i>
  </separator>
  <separator name="miscellaneous" >
   <i type="int" name="IDIOT">     3</i>
   <i type="int" name="ISPECIAL">     0</i>
   <i type="logical" name="LMUSIC"> F  </i>
   <v name="POMASS">     28.08500000</v>
   <v name="DARWINR">      0.00000000</v>
   <v name="DARWINV">      1.00000000</v>
   <i type="logical" name="LCORR"> T  </i>
  </separator>
  <i type="logical" name="GGA_COMPAT"> T  </i>
  <i type="logical" name="LBERRY"> F  </i>
  <i type="int" name="ICORELEVEL">     0</i>
  <i type="logical" name="LDAU"> F  </i>
  <i type="int" name="I_CONSTRAINED_M">     0</i>
  <separator name="electronic exchange-correlation" >
   <i type="string" name="GGA">--</i>
   <i type="int" name="VOSKOWN">     0</i>
   <i type="logical" name="LHFCALC"> F  </i>
   <i type="string" name="PRECFOCK"></i>
   <i type="logical" name="LSYMGRAD"> F  </i>
   <i type="logical" name="LHFONE"> F  </i>
   <i type="logical" name="LRHFCALC"> F  </i>
   <i type="logical" name="LTHOMAS"> F  </i>
   <i type="logical" name="LMODELHF"> F  </i>
   <i name="ENCUT4O">     -1.00000000</i>
   <i type="int" name="EXXOEP">     0</i>
   <i type="int" name="FOURORBIT">     0</i>
   <i name="AEXX">      0.00000000</i>
   <i name="HFALPHA">      0.00000000</i>
   <i name="MCALPHA">      0.00000000</i>
   <i name="ALDAX">      1.00000000</i>
   <i name="AGGAX">      1.00000000</i>
   <i name="ALDAC">      1.00000000</i>
   <i name="AGGAC">      1.00000000</i>
   <i type="int" name="NKREDX">     1</i>
   <i type="int" name="NKREDY">     1</i>
   <i type="int" name="NKREDZ">     1</i>
   <i type="logical" name="SHIFTRED"> F  </i>
   <i type="logical" name="ODDONLY"> F  </i>
   <i type="logical" name="EVENONLY"> F  </i>
   <i type="int" name="LMAXFOCK">     0</i>
   <i type="int" name="NMAXFOCKAE">     0</i>
   <i type="logical" name="LFOCKAEDFT"> F  </i>
   <i name="HFSCREEN">      0.00000000</i>
   <i name="HFSCREENC">      0.00000000</i>
   <i type="int" name="NBANDSGWLOW">     0</i>
  </separator>
  <separator name="vdW DFT" >
   <i type="logical" name="LUSE_VDW"> F  </i>
   <i name="Zab_VDW">     -0.84910000</i>
   <i name="PARAM1">      0.12340000</i>
   <i name="PARAM2">      1.00000000</i>
   <i name="PARAM3">      0.00000000</i>
  </separator>
  <separator name="model GW" >
   <i type="int" name="MODEL_GW">     0</i>
   <i name="MODEL_EPS0">     12.38854649</i>
   <i name="MODEL_ALPHA">      1.00000000</i>
  </separator>
  <separator name="linear response parameters" >
   <i type="logical" name="LEPSILON"> F  </i>
   <i type="logical" name="LRPA"> F  </i>
   <i type="logical" name="LNABLA"> F  </i>
   <i type="logical" name="LVEL"> F  </i>
   <i type="int" name="KINTER">     0</i>
   <i name="CSHIFT">      0.10000000</i>
   <i name="OMEGAMAX">     -1.00000000</i>
   <i name="DEG_THRESHOLD">      0.00200000</i>
   <i name="RTIME">     -0.10000000</i>
   <i name="WPLASMAI">      0.00000000</i>
   <v name="DFIELD">      0.00000000      0.00000000      0.00000000</v>
   <v name="WPLASMA">      0.00000000      0.00000000      0.00000000      0.00000000      0.00000000      0.00000000      0.00000000      0.00000000      0.00000000</v>
  </separator>
  <separator name="orbital magnetization" >
   <i type="logical" name="NUCIND"> F  </i>
   <v name="MAGPOS">      0.00000000      0.00000000      0.00000000</v>
   <i type="logical" name="LNICSALL"> T  </i>
   <i type="logical" name="ORBITALMAG"> F  </i>
   <i type="logical" name="LMAGBLOCH"> F  </i>
   <i type="logical" name="LCHIMAG"> F  </i>
   <i type="logical" name="LGAUGE"> T  </i>
   <i type="int" name="MAGATOM">     0</i>
   <v name="MAGDIPOL">      0.00000000      0.00000000      0.00000000</v>
   <v name="AVECCONST">      0.00000000      0.00000000      0.00000000</v>
  </separator>
  <separator name="response functions" >
   <i type="logical" name="LADDER"> F  </i>
   <i type="logical" name="LRPAFORCE"> F  </i>
   <i type="logical" name="LFXC"> F  </i>
   <i type="logical" name="LHARTREE"> T  </i>
   <i type="int" name="IBSE">     0</i>
   <v type="int" name="KPOINT">    -1     0     0     0</v>
   <i type="logical" name="LTCTE"> F  </i>
   <i type="logical" name="LTETE"> F  </i>
   <i type="logical" name="LTRIPLET"> F  </i>
   <i type="logical" name="LFXCEPS"> F  </i>
   <i type="logical" name="LFXHEG"> F  </i>
   <i type="int" name="NATURALO">     2</i>
   <i type="logical" name="L2ORDER"> F  </i>
   <i type="logical" name="LMP2LT"> F  </i>
   <i type="logical" name="LUSEW"> F  </i>
   <i name="ENCUTGW">     -2.00000000</i>
   <i name="ENCUTGWSOFT">     -2.00000000</i>
   <i name="ENCUTLF">     -1.00000000</i>
   <i type="int" name="LMAXMP2">    -1</i>
   <i name="SCISSOR">      0.00000000</i>
   <i type="int" name="NOMEGA">     0</i>
   <i type="int" name="NOMEGAR">     0</i>
   <i type="int" name="NBANDSGW">    -1</i>
   <i type="int" name="NBANDSO">    -1</i>
   <i type="int" name="NBANDSV">    -1</i>
   <i type="int" name="NELM">   100</i>
   <i type="int" name="NELMHF">     1</i>
   <i type="int" name="DIM">     3</i>
   <i type="int" name="ANTIRES">     0</i>
   <i name="OMEGAMAX">    -30.00000000</i>
   <i name="OMEGAMIN">    -30.00000000</i>
   <i name="OMEGATL">   -200.00000000</i>
   <i type="int" name="OMEGAGRID">   140</i>
   <i name="CSHIFT">     -0.10000000</i>
   <i type="logical" name="SELFENERGY"> F  </i>
   <i type="logical" name="LSPECTRAL"> F  </i>
   <i type="logical" name="LSPECTRALGW"> F  </i>
   <i type="logical" name="LSINGLES"> F  </i>
   <i type="logical" name="LFERMIGW"> F  </i>
   <i type="logical" name="ODDONLYGW"> F  </i>
   <i type="logical" name="EVENONLYGW"> F  </i>
   <i type="int" name="NKREDLFX">     1</i>
   <i type="int" name="NKREDLFY">     1</i>
   <i type="int" name="NKREDLFZ">     1</i>
   <i type="int" name="MAXMEM">  2800</i>
   <i type="int" name="TELESCOPE">     0</i>
   <i type="int" name="TAUPAR">     1</i>
   <i type="int" name="OMEGAPAR">    -1</i>
   <i name="LAMBDA">      1.00000000</i>
  </separator>
  <separator name="External order field" >
   <i name="OFIELD_KAPPA">      0.00000000</i>
   <v name="OFIELD_K">      0.00000000      0.00000000      0.00000000</v>
   <i name="OFIELD_Q6_NEAR">      0.00000000</i>
   <i name="OFIELD_Q6_FAR">      0.00000000</i>
   <i name="OFIELD_A">      0.00000000</i>
  </separator>
 </parameters>
 <atominfo>
  <atoms>       8 </atoms>
  <types>       1 </types>
  <array name="atoms" >
   <dimension dim="1">ion</dimension>
   <field type="string">element</field>
   <field type="int">atomtype</field>
   <set>
    <rc><c>Si</c><c>   1</c></rc>
    <rc><c>Si</c><c>   1</c></rc>
    <rc><c>Si</c><c>   1</c></rc>
    <rc><c>Si</c><c>   1</c></rc>
    <rc><c>Si</c><c>   1</c></rc>
    <rc><c>Si</c><c>   1</c></rc>
    <rc><c>Si</c><c>   1</c></rc>
    <rc><c>Si</c><c>   1</c></rc>
   </set>
  </array>
  <array name="atomtypes" >
   <dimension dim="1">type</dimension>
   <field type="int">atomspertype</field>
   <field type="string">element</field>
   <field>mass</field>
   <field>valence</field>
   <field type="string">pseudopotential</field>
   <set>
    <rc><c>   8</c><c>Si</c><c>     28.08500000</c><c>      4.00000000</c><c> PAW_PBE Si 05Jan2001                   </c></rc>
   </set>
  </array>
 </atominfo>
 <structure name="initialpos" >
  <crystal>
   <varray name="basis" >
    <v>       5.52314500       0.00000000       0.00000000 </v>
    <v>       0.00000000       5.46872800       0.00000000 </v>
    <v>       0.00000000       0.00000000       5.46872800 </v>
   </varray>
   <i name="volume">    165.18061985 </i>
   <varray name="rec_basis" >
    <v>       0.18105626       0.00000000       0.00000000 </v>
    <v>       0.00000000       0.18285788       0.00000000 </v>
    <v>       0.00000000       0.00000000       0.18285788 </v>
   </varray>
  </crystal>
  <varray name="positions" >
   <v>       0.25000000       0.25000000       0.25000000 </v>
   <v>       0.50000000       0.50000000       0.00000000 </v>
   <v>       0.25000000       0.75000000       0.75000000 </v>
   <v>       0.50000000       0.00000000       0.50000000 </v>
   <v>       0.75000000       0.25000000       0.75000000 </v>
   <v>       0.00000000       0.50000000       0.50000000 </v>
   <v>       0.75000000       0.75000000       0.25000000 </v>
   <v>       0.00000000       0.00000000       0.00000000 </v>
  </varray>
 </structure>
 <calculation>
  <scstep>
   <time name="dav">    2.69    2.71</time>
   <time name="total">    3.12    3.14</time>
   <energy>
    <i name="alphaZ">     13.04291641 </i>
    <i name="ewald">   -904.80203934 </i>
    <i name="hartreedc">    -45.89203945 </i>
    <i name="XCdc">    -74.57703753 </i>
    <i name="pawpsdc">    263.66839707 </i>
    <i name="pawaedc">   -122.90348290 </i>
    <i name="eentropy">      0.00000000 </i>
    <i name="bandstr">    112.34440357 </i>
    <i name="atom">    824.53081094 </i>
    <i name="e_fr_energy">     65.41192877 </i>
    <i name="e_wo_entrp">     65.41192877 </i>
    <i name="e_0_energy">     65.41192877 </i>
   </energy>
  </scstep>
  <scstep>
   <time name="dav">    3.54    3.54</time>
   <time name="total">    3.54    3.55</time>
   <energy>
    <i name="e_fr_energy">    -39.73656726 </i>
    <i name="e_wo_entrp">    -39.73656726 </i>
    <i name="e_0_energy">    -39.73656726 </i>
   </energy>
  </scstep>
  <scstep>
   <time name="dav">    3.54    3.58</time>
   <time name="total">    3.54    3.58</time>
   <energy>
    <i name="e_fr_energy">    -43.24975894 </i>
    <i name="e_wo_entrp">    -43.24975894 </i>
    <i name="e_0_energy">    -43.24975894 </i>
   </energy>
  </scstep>
  <scstep>
   <time name="dav">    3.58    3.60</time>
   <time name="total">    3.59    3.61</time>
   <energy>
    <i name="e_fr_energy">    -43.28631614 </i>
    <i name="e_wo_entrp">    -43.28631614 </i>
    <i name="e_0_energy">    -43.28631614 </i>
   </energy>
  </scstep>
  <scstep>
   <time name="dav">    3.57    3.59</time>
   <time name="total">    3.72    3.74</time>
   <energy>
    <i name="e_fr_energy">    -43.28704656 </i>
    <i name="e_wo_entrp">    -43.28704656 </i>
    <i name="e_0_energy">    -43.28704656 </i>
   </energy>
  </scstep>
  <scstep>
   <time name="diag">    0.48    0.48</time>
   <time name="diis">    2.11    2.12</time>
   <time name="orth">    0.03    0.03</time>
   <time name="total">    3.27    3.29</time>
   <energy>
    <i name="e_fr_energy">    -43.54315324 </i>
    <i name="e_wo_entrp">    -43.54315324 </i>
    <i name="e_0_energy">    -43.54315324 </i>
   </energy>
  </scstep>
  <scstep>
   <time name="diag">    0.44    0.44</time>
   <time name="diis">    1.96    1.99</time>
   <time name="orth">    0.03    0.03</time>
   <time name="total">    3.03    3.06</time>
   <energy>
    <i name="e_fr_energy">    -43.37970319 </i>
    <i name="e_wo_entrp">    -43.37970319 </i>
    <i name="e_0_energy">    -43.37970319 </i>
   </energy>
  </scstep>
  <scstep>
   <time name="diag">    0.43    0.43</time>
   <time name="diis">    1.88    1.88</time>
   <time name="orth">    0.03    0.03</time>
   <time name="total">    2.94    2.95</time>
   <energy>
    <i name="e_fr_energy">    -43.38166947 </i>
    <i name="e_wo_entrp">    -43.38166947 </i>
    <i name="e_0_energy">    -43.38166947 </i>
   </energy>
  </scstep>
  <scstep>
   <time name="diag">    0.47    0.48</time>
   <time name="diis">    2.06    2.09</time>
   <time name="orth">    0.03    0.03</time>
   <time name="total">    3.23    3.27</time>
   <energy>
    <i name="e_fr_energy">    -43.37431498 </i>
    <i name="e_wo_entrp">    -43.37431498 </i>
    <i name="e_0_energy">    -43.37431498 </i>
   </energy>
  </scstep>
  <scstep>
   <time name="diag">    0.42    0.42</time>
   <time name="diis">    1.66    1.72</time>
   <time name="orth">    0.03    0.03</time>
   <time name="total">    2.77    2.85</time>
   <energy>
    <i name="e_fr_energy">    -43.37479694 </i>
    <i name="e_wo_entrp">    -43.37479694 </i>
    <i name="e_0_energy">    -43.37479694 </i>
   </energy>
  </scstep>
  <scstep>
   <time name="diag">    0.49    0.49</time>
   <time name="diis">    1.53    1.54</time>
   <time name="orth">    0.03    0.03</time>
   <time name="total">    2.55    2.56</time>
   <energy>
    <i name="alphaZ">     13.04291641 </i>
    <i name="ewald">   -904.80203934 </i>
    <i name="hartreedc">    -61.17494719 </i>
    <i name="XCdc">    -72.41900800 </i>
    <i name="pawpsdc">    293.33028317 </i>
    <i name="pawaedc">   -153.37275849 </i>
    <i name="eentropy">      0.00000000 </i>
    <i name="bandstr">     17.48957152 </i>
    <i name="atom">    824.53081094 </i>
    <i name="e_fr_energy">    -43.37517098 </i>
    <i name="e_wo_entrp">    -43.37517098 </i>
    <i name="e_0_energy">    -43.37517098 </i>
   </energy>
  </scstep>
  <structure>
   <crystal>
    <varray name="basis" >
     <v>       5.52314500       0.00000000       0.00000000 </v>
     <v>       0.00000000       5.46872800       0.00000000 </v>
     <v>       0.00000000       0.00000000       5.46872800 </v>
    </varray>
    <i name="volume">    165.18061985 </i>
    <varray name="rec_basis" >
     <v>       0.18105626       0.00000000       0.00000000 </v>
     <v>       0.00000000       0.18285788       0.00000000 </v>
     <v>       0.00000000       0.00000000       0.18285788 </v>
    </varray>
   </crystal>
   <varray name="positions" >
    <v>       0.25000000       0.25000000       0.25000000 </v>
    <v>       0.50000000       0.50000000       0.00000000 </v>
    <v>       0.25000000       0.75000000       0.75000000 </v>
    <v>       0.50000000       0.00000000       0.50000000 </v>
    <v>       0.75000000       0.25000000       0.75000000 </v>
    <v>       0.00000000       0.50000000       0.50000000 </v>
    <v>       0.75000000       0.75000000       0.25000000 </v>
    <v>       0.00000000       0.00000000       0.00000000 </v>
   </varray>
  </structure>
  <varray name="forces" >
   <v>       0.00000000      -0.00000000      -0.00000000 </v>
   <v>      -0.00000000       0.00000000       0.00000000 </v>
   <v>      -0.00000000      -0.00000000      -0.00000000 </v>
   <v>       0.00000000      -0.00000000       0.00000000 </v>
   <v>      -0.00000000      -0.00000000      -0.00000000 </v>
   <v>      -0.00000000       0.00000000       0.00000000 </v>
   <v>      -0.00000000       0.00000000      -0.00000000 </v>
   <v>       0.00000000      -0.00000000       0.00000000 </v>
  </varray>
  <varray name="stress" >
   <v>     -14.73274501      -0.00000000       0.00000000 </v>
   <v>       0.00000000      -4.84191609       0.00000000 </v>
   <v>       0.00000000       0.00000000      -4.84191609 </v>
  </varray>
  <energy>
   <i name="e_fr_energy">    -43.37517098 </i>
   <i name="e_wo_entrp">    -43.37517098 </i>
   <i name="e_0_energy">      0.00000000 </i>
  </energy>
  <time name="totalsc">   41.08   41.41</time>
 </calculation>
 <calculation>
  <scstep>
   <time name="dav">    3.37    3.38</time>
   <time name="total">    3.98    4.00</time>
   <energy>
    <i name="alphaZ">     13.24309871 </i>
    <i name="ewald">   -909.39580958 </i>
    <i name="hartreedc">    -61.50964460 </i>
    <i name="XCdc">    -72.11984674 </i>
    <i name="pawpsdc">    293.25009049 </i>
    <i name="pawaedc">   -153.29094240 </i>
    <i name="eentropy">      0.00000000 </i>
    <i name="bandstr">     21.90691279 </i>
    <i name="atom">    824.53081094 </i>
    <i name="e_fr_energy">    -43.38533039 </i>
    <i name="e_wo_entrp">    -43.38533039 </i>
    <i name="e_0_energy">    -43.38533039 </i>
   </energy>
  </scstep>
  <scstep>
   <time name="diag">    0.49    0.50</time>
   <time name="diis">    2.00    2.01</time>
   <time name="orth">    0.04    0.04</time>
   <time name="total">    3.22    3.25</time>
   <energy>
    <i name="e_fr_energy">    -43.38250530 </i>
    <i name="e_wo_entrp">    -43.38250530 </i>
    <i name="e_0_energy">    -43.38250530 </i>
   </energy>
  </scstep>
  <scstep>
   <time name="diag">    0.52    0.53</time>
   <time name="diis">    2.06    2.09</time>
   <time name="orth">    0.03    0.03</time>
   <time name="total">    3.33    3.37</time>
   <energy>
    <i name="e_fr_energy">    -43.38086979 </i>
    <i name="e_wo_entrp">    -43.38086979 </i>
    <i name="e_0_energy">    -43.38086979 </i>
   </energy>
  </scstep>
  <scstep>
   <time name="diag">    0.43    0.43</time>
   <time name="diis">    1.16    1.16</time>
   <time name="orth">    0.03    0.03</time>
   <time name="total">    2.07    2.08</time>
   <energy>
    <i name="alphaZ">     13.24309871 </i>
    <i name="ewald">   -909.39580958 </i>
    <i name="hartreedc">    -60.48875335 </i>
    <i name="XCdc">    -72.14078613 </i>
    <i name="pawpsdc">    295.04802729 </i>
    <i name="pawaedc">   -155.13738590 </i>
    <i name="eentropy">      0.00000000 </i>
    <i name="bandstr">     20.95991468 </i>
    <i name="atom">    824.53081094 </i>
    <i name="e_fr_energy">    -43.38088334 </i>
    <i name="e_wo_entrp">    -43.38088334 </i>
    <i name="e_0_energy">    -43.38088334 </i>
   </energy>
  </scstep>
  <structure>
   <crystal>
    <varray name="basis" >
     <v>       5.47255556      -0.00000000       0.00000000 </v>
     <v>       0.00000000       5.45226559       0.00000000 </v>
     <v>       0.00000000       0.00000000       5.45226559 </v>
    </varray>
    <i name="volume">    162.68375439 </i>
    <varray name="rec_basis" >
     <v>       0.18272999       0.00000000       0.00000000 </v>
     <v>       0.00000000       0.18340999       0.00000000 </v>
     <v>       0.00000000       0.00000000       0.18340999 </v>
    </varray>
   </crystal>
   <varray name="positions" >
    <v>       0.25000000       0.25000000       0.25000000 </v>
    <v>       0.50000000       0.50000000       0.00000000 </v>
    <v>       0.25000000       0.75000000       0.75000000 </v>
    <v>       0.50000000      -0.00000000       0.50000000 </v>
    <v>       0.75000000       0.25000000       0.75000000 </v>
    <v>      -0.00000000       0.50000000       0.50000000 </v>
    <v>       0.75000000       0.75000000       0.25000000 </v>
    <v>       0.00000000      -0.00000000       0.00000000 </v>
   </varray>
  </structure>
  <varray name="forces" >
   <v>       0.00000000      -0.00000000       0.00000000 </v>
   <v>       0.00000000       0.00000000      -0.00000000 </v>
   <v>       0.00000000      -0.00000000       0.00000000 </v>
   <v>       0.00000000       0.00000000      -0.00000000 </v>
   <v>      -0.00000000      -0.00000000       0.00000000 </v>
   <v>       0.00000000       0.00000000       0.00000000 </v>
   <v>      -0.00000000       0.00000000       0.00000000 </v>
   <v>       0.00000000      -0.00000000      -0.00000000 </v>
  </varray>
  <varray name="stress" >
   <v>       2.74870856       0.00000000       0.00000000 </v>
   <v>       0.00000000       6.03571545       0.00000000 </v>
   <v>       0.00000000       0.00000000       6.03571545 </v>
  </varray>
  <energy>
   <i name="e_fr_energy">    -43.38088334 </i>
   <i name="e_wo_entrp">    -43.38088334 </i>
   <i name="e_0_energy">      0.00000000 </i>
  </energy>
  <time name="totalsc">   17.02   17.15</time>
 </calculation>
 <calculation>
  <scstep>
   <time name="dav">    3.51    3.52</time>
   <time name="total">    4.15    4.16</time>
   <energy>
    <i name="alphaZ">     13.18868519 </i>
    <i name="ewald">   -908.15070261 </i>
    <i name="hartreedc">    -60.41691879 </i>
    <i name="XCdc">    -72.21805194 </i>
    <i name="pawpsdc">    295.15423936 </i>
    <i name="pawaedc">   -155.24817994 </i>
    <i name="eentropy">      0.00000000 </i>
    <i name="bandstr">     19.77810889 </i>
    <i name="atom">    824.53081094 </i>
    <i name="e_fr_energy">    -43.38200888 </i>
    <i name="e_wo_entrp">    -43.38200888 </i>
    <i name="e_0_energy">    -43.38200888 </i>
   </energy>
  </scstep>
  <scstep>
   <time name="diag">    0.49    0.49</time>
   <time name="diis">    1.27    1.28</time>
   <time name="orth">    0.03    0.03</time>
   <time name="total">    2.33    2.33</time>
   <energy>
    <i name="alphaZ">     13.18868519 </i>
    <i name="ewald">   -908.15070261 </i>
    <i name="hartreedc">    -60.53788582 </i>
    <i name="XCdc">    -72.21389988 </i>
    <i name="pawpsdc">    295.00300508 </i>
    <i name="pawaedc">   -155.09372250 </i>
    <i name="eentropy">      0.00000000 </i>
    <i name="bandstr">     19.89192569 </i>
    <i name="atom">    824.53081094 </i>
    <i name="e_fr_energy">    -43.38178390 </i>
    <i name="e_wo_entrp">    -43.38178390 </i>
    <i name="e_0_energy">    -43.38178390 </i>
   </energy>
  </scstep>
  <structure>
   <crystal>
    <varray name="basis" >
     <v>       5.48619701      -0.00000000       0.00000000 </v>
     <v>       0.00000000       5.45670468       0.00000000 </v>
     <v>       0.00000000       0.00000000       5.45670468 </v>
    </varray>
    <i name="volume">    163.35495058 </i>
    <varray name="rec_basis" >
     <v>       0.18227563       0.00000000       0.00000000 </v>
     <v>       0.00000000       0.18326079       0.00000000 </v>
     <v>       0.00000000       0.00000000       0.18326079 </v>
    </varray>
   </crystal>
   <varray name="positions" >
    <v>       0.25000000       0.25000000       0.25000000 </v>
    <v>       0.50000000       0.50000000       0.00000000 </v>
    <v>       0.25000000       0.75000000       0.75000000 </v>
    <v>       0.50000000      -0.00000000       0.50000000 </v>
    <v>       0.75000000       0.25000000       0.75000000 </v>
    <v>      -0.00000000       0.50000000       0.50000000 </v>
    <v>       0.75000000       0.75000000       0.25000000 </v>
    <v>       0.00000000      -0.00000000       0.00000000 </v>
   </varray>
  </structure>
  <varray name="forces" >
   <v>       0.00000000      -0.00000000       0.00000000 </v>
   <v>       0.00000000       0.00000000      -0.00000000 </v>
   <v>       0.00000000      -0.00000000       0.00000000 </v>
   <v>      -0.00000000       0.00000000      -0.00000000 </v>
   <v>      -0.00000000       0.00000000      -0.00000000 </v>
   <v>      -0.00000000      -0.00000000       0.00000000 </v>
   <v>       0.00000000      -0.00000000       0.00000000 </v>
   <v>      -0.00000000       0.00000000      -0.00000000 </v>
  </varray>
  <varray name="stress" >
   <v>      -0.90831542       0.00000000       0.00000000 </v>
   <v>       0.00000000       4.16739764       0.00000000 </v>
   <v>       0.00000000       0.00000000       4.16739764 </v>
  </varray>
  <energy>
   <i name="e_fr_energy">    -43.38178390 </i>
   <i name="e_wo_entrp">    -43.38178390 </i>
   <i name="e_0_energy">      0.00000000 </i>
  </energy>
  <time name="totalsc">   10.66   10.71</time>
  <eigenvalues>
   <array>
    <dimension dim="1">band</dimension>
    <dimension dim="2">kpoint</dimension>
    <dimension dim="3">spin</dimension>
    <field>eigene</field>
    <field>occ</field>
    <set>
     <set comment="spin 1">
      <set comment="kpoint 1">
       <r>   -6.1975    1.0000 </r>
       <r>   -2.1457    1.0000 </r>
       <r>   -2.1457    1.0000 </r>
       <r>   -2.1148    1.0000 </r>
       <r>   -2.1148    1.0000 </r>
       <r>   -2.1148    1.0000 </r>
       <r>   -2.1148    1.0000 </r>
       <r>    2.8152    1.0000 </r>
       <r>    2.8152    1.0000 </r>
       <r>    2.8152    1.0000 </r>
       <r>    2.8152    1.0000 </r>
       <r>    2.8554    1.0000 </r>
       <r>    2.8554    1.0000 </r>
       <r>    5.5995    1.0000 </r>
       <r>    5.6374    1.0000 </r>
       <r>    5.6374    1.0000 </r>
       <r>    6.3629    0.0000 </r>
       <r>    6.3629    0.0000 </r>
       <r>    6.3629    0.0000 </r>
       <r>    6.3629    0.0000 </r>
       <r>    6.4051    0.0000 </r>
       <r>    6.4051    0.0000 </r>
       <r>    8.1773    0.0000 </r>
       <r>    8.1791    0.0000 </r>
      </set>
      <set comment="kpoint 2">
       <r>   -5.9308    1.0000 </r>
       <r>   -3.8575    1.0000 </r>
       <r>   -2.0423    1.0000 </r>
       <r>   -2.0423    1.0000 </r>
       <r>   -2.0422    1.0000 </r>
       <r>   -2.0422    1.0000 </r>
       <r>   -0.1142    1.0000 </r>
       <r>    2.2782    1.0000 </r>
       <r>    2.2782    1.0000 </r>
       <r>    2.2782    1.0000 </r>
       <r>    2.2782    1.0000 </r>
       <r>    3.0955    1.0000 </r>
       <r>    3.0955    1.0000 </r>
       <r>    4.2509    1.0000 </r>
       <r>    4.8530    1.0000 </r>
       <r>    4.8530    1.0000 </r>
       <r>    6.3080    0.0000 </r>
       <r>    7.2169    0.0000 </r>
       <r>    7.5864    0.0000 </r>
       <r>    7.5864    0.0000 </r>
       <r>    7.5864    0.0000 </r>
       <r>    7.5864    0.0000 </r>
       <r>    7.6621    0.0000 </r>
       <r>    9.2928    0.0000 </r>
      </set>
      <set comment="kpoint 3">
       <r>   -5.1403    1.0000 </r>
       <r>   -5.1403    1.0000 </r>
       <r>   -1.9629    1.0000 </r>
       <r>   -1.9629    1.0000 </r>
       <r>   -1.9629    1.0000 </r>
       <r>   -1.9629    1.0000 </r>
       <r>    1.8618    1.0000 </r>
       <r>    1.8618    1.0000 </r>
       <r>    1.8618    1.0000 </r>
       <r>    1.8618    1.0000 </r>
       <r>    2.0818    1.0000 </r>
       <r>    2.0818    1.0000 </r>
       <r>    3.7958    1.0000 </r>
       <r>    3.7958    1.0000 </r>
       <r>    3.7958    1.0000 </r>
       <r>    3.7958    1.0000 </r>
       <r>    6.8061    0.0000 </r>
       <r>    6.8061    0.0000 </r>
       <r>    8.7594    0.0000 </r>
       <r>    8.7594    0.0000 </r>
       <r>    9.8568    0.0000 </r>
       <r>    9.8568    0.0000 </r>
       <r>    9.8568    0.0000 </r>
       <r>    9.8568    0.0000 </r>
      </set>
      <set comment="kpoint 4">
       <r>   -5.9283    1.0000 </r>
       <r>   -3.8375    1.0000 </r>
       <r>   -2.0673    1.0000 </r>
       <r>   -2.0673    1.0000 </r>
       <r>   -2.0439    1.0000 </r>
       <r>   -2.0439    1.0000 </r>
       <r>   -0.0765    1.0000 </r>
       <r>    2.2711    1.0000 </r>
       <r>    2.2711    1.0000 </r>
       <r>    2.2994    1.0000 </r>
       <r>    2.2994    1.0000 </r>
       <r>    3.0549    1.0000 </r>
       <r>    3.0604    1.0000 </r>
       <r>    4.2850    1.0000 </r>
       <r>    4.8181    1.0000 </r>
       <r>    4.8420    1.0000 </r>
       <r>    6.2600    0.0000 </r>
       <r>    7.1941    0.0000 </r>
       <r>    7.6023    0.0000 </r>
       <r>    7.6023    0.0000 </r>
       <r>    7.6324    0.0000 </r>
       <r>    7.6489    0.0000 </r>
       <r>    7.6489    0.0000 </r>
       <r>    9.2838    0.0000 </r>
      </set>
      <set comment="kpoint 5">
       <r>   -5.6672    1.0000 </r>
       <r>   -3.6621    1.0000 </r>
       <r>   -3.6453    1.0000 </r>
       <r>   -2.5371    1.0000 </r>
       <r>   -1.5331    1.0000 </r>
       <r>   -0.3179    1.0000 </r>
       <r>   -0.2946    1.0000 </r>
       <r>    1.4217    1.0000 </r>
       <r>    2.3323    1.0000 </r>
       <r>    2.3537    1.0000 </r>
       <r>    2.9214    1.0000 </r>
       <r>    2.9319    1.0000 </r>
       <r>    2.9507    1.0000 </r>
       <r>    3.2335    1.0000 </r>
       <r>    4.0439    1.0000 </r>
       <r>    5.3251    1.0000 </r>
       <r>    6.8453    0.0000 </r>
       <r>    7.5560    0.0000 </r>
       <r>    7.6210    0.0000 </r>
       <r>    8.2656    0.0000 </r>
       <r>    8.3120    0.0000 </r>
       <r>    8.5889    0.0000 </r>
       <r>    8.7372    0.0000 </r>
       <r>    8.9730    0.0000 </r>
      </set>
      <set comment="kpoint 6">
       <r>   -4.8967    1.0000 </r>
       <r>   -4.8967    1.0000 </r>
       <r>   -3.1374    1.0000 </r>
       <r>   -3.1374    1.0000 </r>
       <r>   -0.8873    1.0000 </r>
       <r>   -0.8873    1.0000 </r>
       <r>    1.3515    1.0000 </r>
       <r>    1.3515    1.0000 </r>
       <r>    1.4954    1.0000 </r>
       <r>    1.4954    1.0000 </r>
       <r>    2.9867    1.0000 </r>
       <r>    2.9867    1.0000 </r>
       <r>    3.0964    1.0000 </r>
       <r>    3.0964    1.0000 </r>
       <r>    4.2154    1.0000 </r>
       <r>    4.2154    1.0000 </r>
       <r>    8.1049    0.0000 </r>
       <r>    8.1049    0.0000 </r>
       <r>    8.4533    0.0000 </r>
       <r>    8.4533    0.0000 </r>
       <r>    9.4738    0.0000 </r>
       <r>    9.4738    0.0000 </r>
       <r>    9.8203    0.0000 </r>
       <r>    9.8203    0.0000 </r>
      </set>
      <set comment="kpoint 7">
       <r>   -5.1307    1.0000 </r>
       <r>   -5.1307    1.0000 </r>
       <r>   -1.9738    1.0000 </r>
       <r>   -1.9738    1.0000 </r>
       <r>   -1.9738    1.0000 </r>
       <r>   -1.9738    1.0000 </r>
       <r>    1.8599    1.0000 </r>
       <r>    1.8599    1.0000 </r>
       <r>    1.8599    1.0000 </r>
       <r>    1.8599    1.0000 </r>
       <r>    2.1188    1.0000 </r>
       <r>    2.1188    1.0000 </r>
       <r>    3.7582    1.0000 </r>
       <r>    3.7582    1.0000 </r>
       <r>    3.7706    1.0000 </r>
       <r>    3.7706    1.0000 </r>
       <r>    6.7635    0.0000 </r>
       <r>    6.7635    0.0000 </r>
       <r>    8.7652    0.0000 </r>
       <r>    8.7652    0.0000 </r>
       <r>    9.9165    0.0000 </r>
       <r>    9.9165    0.0000 </r>
       <r>    9.9165    0.0000 </r>
       <r>    9.9165    0.0000 </r>
      </set>
      <set comment="kpoint 8">
       <r>   -4.8896    1.0000 </r>
       <r>   -4.8896    1.0000 </r>
       <r>   -3.1458    1.0000 </r>
       <r>   -3.1458    1.0000 </r>
       <r>   -0.8927    1.0000 </r>
       <r>   -0.8927    1.0000 </r>
       <r>    1.3624    1.0000 </r>
       <r>    1.3624    1.0000 </r>
       <r>    1.5011    1.0000 </r>
       <r>    1.5011    1.0000 </r>
       <r>    2.9733    1.0000 </r>
       <r>    2.9733    1.0000 </r>
       <r>    3.0806    1.0000 </r>
       <r>    3.0806    1.0000 </r>
       <r>    4.2174    1.0000 </r>
       <r>    4.2174    1.0000 </r>
       <r>    8.0479    0.0000 </r>
       <r>    8.0479    0.0000 </r>
       <r>    8.4925    0.0000 </r>
       <r>    8.4925    0.0000 </r>
       <r>    9.4229    0.0000 </r>
       <r>    9.4229    0.0000 </r>
       <r>    9.8217    0.0000 </r>
       <r>    9.8217    0.0000 </r>
      </set>
      <set comment="kpoint 9">
       <r>   -4.1935    1.0000 </r>
       <r>   -4.1935    1.0000 </r>
       <r>   -4.1935    1.0000 </r>
       <r>   -4.1935    1.0000 </r>
       <r>    0.1895    1.0000 </r>
       <r>    0.1895    1.0000 </r>
       <r>    0.1895    1.0000 </r>
       <r>    0.1895    1.0000 </r>
       <r>    1.9624    1.0000 </r>
       <r>    1.9624    1.0000 </r>
       <r>    1.9624    1.0000 </r>
       <r>    1.9624    1.0000 </r>
       <r>    4.3077    1.0000 </r>
       <r>    4.3077    1.0000 </r>
       <r>    4.3077    1.0000 </r>
       <r>    4.3077    1.0000 </r>
       <r>    8.0491    0.0000 </r>
       <r>    8.0491    0.0000 </r>
       <r>    8.0491    0.0000 </r>
       <r>    8.0491    0.0000 </r>
       <r>   10.3734    0.0000 </r>
       <r>   10.3734    0.0000 </r>
       <r>   10.3734    0.0000 </r>
       <r>   10.3734    0.0000 </r>
      </set>
      <set comment="kpoint 10">
       <r>   -5.6648    1.0000 </r>
       <r>   -3.6444    1.0000 </r>
       <r>   -3.6444    1.0000 </r>
       <r>   -2.5460    1.0000 </r>
       <r>   -1.5607    1.0000 </r>
       <r>   -0.3012    1.0000 </r>
       <r>   -0.3012    1.0000 </r>
       <r>    1.4189    1.0000 </r>
       <r>    2.3172    1.0000 </r>
       <r>    2.3172    1.0000 </r>
       <r>    2.9270    1.0000 </r>
       <r>    2.9270    1.0000 </r>
       <r>    2.9490    1.0000 </r>
       <r>    3.2751    1.0000 </r>
       <r>    4.0160    1.0000 </r>
       <r>    5.3547    1.0000 </r>
       <r>    6.8900    0.0000 </r>
       <r>    7.5707    0.0000 </r>
       <r>    7.5707    0.0000 </r>
       <r>    8.2796    0.0000 </r>
       <r>    8.2796    0.0000 </r>
       <r>    8.6187    0.0000 </r>
       <r>    8.7318    0.0000 </r>
       <r>    8.9334    0.0000 </r>
      </set>
      <set comment="kpoint 11">
       <r>   -5.4118    1.0000 </r>
       <r>   -3.5397    1.0000 </r>
       <r>   -3.5263    1.0000 </r>
       <r>   -3.5263    1.0000 </r>
       <r>   -0.7057    1.0000 </r>
       <r>   -0.6994    1.0000 </r>
       <r>   -0.6994    1.0000 </r>
       <r>    1.7371    1.0000 </r>
       <r>    2.1475    1.0000 </r>
       <r>    2.1660    1.0000 </r>
       <r>    2.1660    1.0000 </r>
       <r>    3.4504    1.0000 </r>
       <r>    3.4504    1.0000 </r>
       <r>    3.4898    1.0000 </r>
       <r>    4.8597    1.0000 </r>
       <r>    4.8989    1.0000 </r>
       <r>    7.1549    0.0000 </r>
       <r>    7.1549    0.0000 </r>
       <r>    7.1946    0.0000 </r>
       <r>    7.5888    0.0000 </r>
       <r>    9.1111    0.0000 </r>
       <r>    9.1242    0.0000 </r>
       <r>   10.0392    0.0000 </r>
       <r>   10.0417    0.0000 </r>
      </set>
      <set comment="kpoint 12">
       <r>   -4.6735    1.0000 </r>
       <r>   -4.6735    1.0000 </r>
       <r>   -3.3838    1.0000 </r>
       <r>   -3.3838    1.0000 </r>
       <r>   -1.0823    1.0000 </r>
       <r>   -1.0823    1.0000 </r>
       <r>    0.3973    1.0000 </r>
       <r>    0.3973    1.0000 </r>
       <r>    2.2476    1.0000 </r>
       <r>    2.2476    1.0000 </r>
       <r>    3.5059    1.0000 </r>
       <r>    3.5059    1.0000 </r>
       <r>    3.7950    1.0000 </r>
       <r>    3.7950    1.0000 </r>
       <r>    4.0926    1.0000 </r>
       <r>    4.0926    1.0000 </r>
       <r>    7.8797    0.0000 </r>
       <r>    7.8797    0.0000 </r>
       <r>    8.6052    0.0000 </r>
       <r>    8.6052    0.0000 </r>
       <r>    8.7514    0.0000 </r>
       <r>    8.7514    0.0000 </r>
       <r>    9.1916    0.0000 </r>
       <r>    9.1916    0.0000 </r>
      </set>
      <set comment="kpoint 13">
       <r>   -4.8877    1.0000 </r>
       <r>   -4.8877    1.0000 </r>
       <r>   -3.1369    1.0000 </r>
       <r>   -3.1369    1.0000 </r>
       <r>   -0.9075    1.0000 </r>
       <r>   -0.9075    1.0000 </r>
       <r>    1.3530    1.0000 </r>
       <r>    1.3530    1.0000 </r>
       <r>    1.4763    1.0000 </r>
       <r>    1.4763    1.0000 </r>
       <r>    2.9521    1.0000 </r>
       <r>    2.9521    1.0000 </r>
       <r>    3.1158    1.0000 </r>
       <r>    3.1158    1.0000 </r>
       <r>    4.2388    1.0000 </r>
       <r>    4.2388    1.0000 </r>
       <r>    8.0582    0.0000 </r>
       <r>    8.0582    0.0000 </r>
       <r>    8.5303    0.0000 </r>
       <r>    8.5303    0.0000 </r>
       <r>    9.4755    0.0000 </r>
       <r>    9.4755    0.0000 </r>
       <r>    9.8489    0.0000 </r>
       <r>    9.8489    0.0000 </r>
      </set>
      <set comment="kpoint 14">
       <r>   -4.6671    1.0000 </r>
       <r>   -4.6671    1.0000 </r>
       <r>   -3.3870    1.0000 </r>
       <r>   -3.3870    1.0000 </r>
       <r>   -1.0879    1.0000 </r>
       <r>   -1.0879    1.0000 </r>
       <r>    0.3936    1.0000 </r>
       <r>    0.3936    1.0000 </r>
       <r>    2.2287    1.0000 </r>
       <r>    2.2287    1.0000 </r>
       <r>    3.5163    1.0000 </r>
       <r>    3.5163    1.0000 </r>
       <r>    3.8250    1.0000 </r>
       <r>    3.8250    1.0000 </r>
       <r>    4.0595    1.0000 </r>
       <r>    4.0595    1.0000 </r>
       <r>    7.8438    0.0000 </r>
       <r>    7.8438    0.0000 </r>
       <r>    8.6732    0.0000 </r>
       <r>    8.6732    0.0000 </r>
       <r>    8.7870    0.0000 </r>
       <r>    8.7870    0.0000 </r>
       <r>    9.2360    0.0000 </r>
       <r>    9.2360    0.0000 </r>
      </set>
      <set comment="kpoint 15">
       <r>   -4.0681    1.0000 </r>
       <r>   -4.0681    1.0000 </r>
       <r>   -4.0681    1.0000 </r>
       <r>   -4.0681    1.0000 </r>
       <r>   -0.6728    1.0000 </r>
       <r>   -0.6728    1.0000 </r>
       <r>   -0.6728    1.0000 </r>
       <r>   -0.6728    1.0000 </r>
       <r>    3.2145    1.0000 </r>
       <r>    3.2145    1.0000 </r>
       <r>    3.2145    1.0000 </r>
       <r>    3.2145    1.0000 </r>
       <r>    4.3683    1.0000 </r>
       <r>    4.3683    1.0000 </r>
       <r>    4.3683    1.0000 </r>
       <r>    4.3683    1.0000 </r>
       <r>    7.9277    0.0000 </r>
       <r>    7.9277    0.0000 </r>
       <r>    7.9277    0.0000 </r>
       <r>    7.9277    0.0000 </r>
       <r>    9.2496    0.0000 </r>
       <r>    9.2496    0.0000 </r>
       <r>    9.2497    0.0000 </r>
       <r>    9.2497    0.0000 </r>
      </set>
      <set comment="kpoint 16">
       <r>   -4.1870    1.0000 </r>
       <r>   -4.1870    1.0000 </r>
       <r>   -4.1870    1.0000 </r>
       <r>   -4.1870    1.0000 </r>
       <r>    0.1716    1.0000 </r>
       <r>    0.1716    1.0000 </r>
       <r>    0.1716    1.0000 </r>
       <r>    0.1716    1.0000 </r>
       <r>    1.9335    1.0000 </r>
       <r>    1.9335    1.0000 </r>
       <r>    1.9335    1.0000 </r>
       <r>    1.9335    1.0000 </r>
       <r>    4.3495    1.0000 </r>
       <r>    4.3495    1.0000 </r>
       <r>    4.3495    1.0000 </r>
       <r>    4.3495    1.0000 </r>
       <r>    8.0984    0.0000 </r>
       <r>    8.0984    0.0000 </r>
       <r>    8.0984    0.0000 </r>
       <r>    8.0984    0.0000 </r>
       <r>   10.3775    0.0000 </r>
       <r>   10.3775    0.0000 </r>
       <r>   10.3775    0.0000 </r>
       <r>   10.3777    0.0000 </r>
      </set>
      <set comment="kpoint 17">
       <r>   -4.0643    1.0000 </r>
       <r>   -4.0643    1.0000 </r>
       <r>   -4.0643    1.0000 </r>
       <r>   -4.0643    1.0000 </r>
       <r>   -0.6807    1.0000 </r>
       <r>   -0.6807    1.0000 </r>
       <r>   -0.6807    1.0000 </r>
       <r>   -0.6807    1.0000 </r>
       <r>    3.1791    1.0000 </r>
       <r>    3.1791    1.0000 </r>
       <r>    3.1791    1.0000 </r>
       <r>    3.1791    1.0000 </r>
       <r>    4.4081    1.0000 </r>
       <r>    4.4081    1.0000 </r>
       <r>    4.4081    1.0000 </r>
       <r>    4.4081    1.0000 </r>
       <r>    7.9676    0.0000 </r>
       <r>    7.9676    0.0000 </r>
       <r>    7.9676    0.0000 </r>
       <r>    7.9676    0.0000 </r>
       <r>    9.2058    0.0000 </r>
       <r>    9.2058    0.0000 </r>
       <r>    9.2058    0.0000 </r>
       <r>    9.2059    0.0000 </r>
      </set>
      <set comment="kpoint 18">
       <r>   -3.9163    1.0000 </r>
       <r>   -3.9163    1.0000 </r>
       <r>   -3.9163    1.0000 </r>
       <r>   -3.9163    1.0000 </r>
       <r>   -1.2481    1.0000 </r>
       <r>   -1.2481    1.0000 </r>
       <r>   -1.2481    1.0000 </r>
       <r>   -1.2481    1.0000 </r>
       <r>    4.4204    1.0000 </r>
       <r>    4.4204    1.0000 </r>
       <r>    4.4204    1.0000 </r>
       <r>    4.4204    1.0000 </r>
       <r>    4.4709    1.0000 </r>
       <r>    4.4709    1.0000 </r>
       <r>    4.4709    1.0000 </r>
       <r>    4.4709    1.0000 </r>
       <r>    7.0957    0.0000 </r>
       <r>    7.0957    0.0000 </r>
       <r>    7.0957    0.0000 </r>
       <r>    7.0957    0.0000 </r>
       <r>    8.9569    0.0000 </r>
       <r>    8.9579    0.0000 </r>
       <r>    8.9585    0.0000 </r>
       <r>    8.9626    0.0000 </r>
      </set>
     </set>
     <set comment="spin 2">
      <set comment="kpoint 1">
       <r>   -6.1976    1.0000 </r>
       <r>   -2.1458    1.0000 </r>
       <r>   -2.1458    1.0000 </r>
       <r>   -2.1149    1.0000 </r>
       <r>   -2.1149    1.0000 </r>
       <r>   -2.1149    1.0000 </r>
       <r>   -2.1149    1.0000 </r>
       <r>    2.8151    1.0000 </r>
       <r>    2.8151    1.0000 </r>
       <r>    2.8151    1.0000 </r>
       <r>    2.8151    1.0000 </r>
       <r>    2.8553    1.0000 </r>
       <r>    2.8553    1.0000 </r>
       <r>    5.5994    1.0000 </r>
       <r>    5.6373    1.0000 </r>
       <r>    5.6373    1.0000 </r>
       <r>    6.3628    0.0000 </r>
       <r>    6.3628    0.0000 </r>
       <r>    6.3628    0.0000 </r>
       <r>    6.3628    0.0000 </r>
       <r>    6.4051    0.0000 </r>
       <r>    6.4051    0.0000 </r>
       <r>    8.1772    0.0000 </r>
       <r>    8.1797    0.0000 </r>
      </set>
      <set comment="kpoint 2">
       <r>   -5.9309    1.0000 </r>
       <r>   -3.8576    1.0000 </r>
       <r>   -2.0424    1.0000 </r>
       <r>   -2.0424    1.0000 </r>
       <r>   -2.0424    1.0000 </r>
       <r>   -2.0424    1.0000 </r>
       <r>   -0.1143    1.0000 </r>
       <r>    2.2781    1.0000 </r>
       <r>    2.2781    1.0000 </r>
       <r>    2.2781    1.0000 </r>
       <r>    2.2781    1.0000 </r>
       <r>    3.0954    1.0000 </r>
       <r>    3.0954    1.0000 </r>
       <r>    4.2508    1.0000 </r>
       <r>    4.8529    1.0000 </r>
       <r>    4.8529    1.0000 </r>
       <r>    6.3079    0.0000 </r>
       <r>    7.2169    0.0000 </r>
       <r>    7.5864    0.0000 </r>
       <r>    7.5864    0.0000 </r>
       <r>    7.5864    0.0000 </r>
       <r>    7.5864    0.0000 </r>
       <r>    7.6620    0.0000 </r>
       <r>    9.2927    0.0000 </r>
      </set>
      <set comment="kpoint 3">
       <r>   -5.1404    1.0000 </r>
       <r>   -5.1404    1.0000 </r>
       <r>   -1.9630    1.0000 </r>
       <r>   -1.9630    1.0000 </r>
       <r>   -1.9630    1.0000 </r>
       <r>   -1.9630    1.0000 </r>
       <r>    1.8617    1.0000 </r>
       <r>    1.8617    1.0000 </r>
       <r>    1.8617    1.0000 </r>
       <r>    1.8617    1.0000 </r>
       <r>    2.0816    1.0000 </r>
       <r>    2.0816    1.0000 </r>
       <r>    3.7957    1.0000 </r>
       <r>    3.7957    1.0000 </r>
       <r>    3.7957    1.0000 </r>
       <r>    3.7957    1.0000 </r>
       <r>    6.8061    0.0000 </r>
       <r>    6.8061    0.0000 </r>
       <r>    8.7594    0.0000 </r>
       <r>    8.7594    0.0000 </r>
       <r>    9.8568    0.0000 </r>
       <r>    9.8568    0.0000 </r>
       <r>    9.8568    0.0000 </r>
       <r>    9.8568    0.0000 </r>
      </set>
      <set comment="kpoint 4">
       <r>   -5.9284    1.0000 </r>
       <r>   -3.8376    1.0000 </r>
       <r>   -2.0674    1.0000 </r>
       <r>   -2.0674    1.0000 </r>
       <r>   -2.0441    1.0000 </r>
       <r>   -2.0440    1.0000 </r>
       <r>   -0.0766    1.0000 </r>
       <r>    2.2710    1.0000 </r>
       <r>    2.2710    1.0000 </r>
       <r>    2.2993    1.0000 </r>
       <r>    2.2993    1.0000 </r>
       <r>    3.0548    1.0000 </r>
       <r>    3.0602    1.0000 </r>
       <r>    4.2848    1.0000 </r>
       <r>    4.8180    1.0000 </r>
       <r>    4.8419    1.0000 </r>
       <r>    6.2600    0.0000 </r>
       <r>    7.1941    0.0000 </r>
       <r>    7.6022    0.0000 </r>
       <r>    7.6022    0.0000 </r>
       <r>    7.6323    0.0000 </r>
       <r>    7.6488    0.0000 </r>
       <r>    7.6488    0.0000 </r>
       <r>    9.2831    0.0000 </r>
      </set>
      <set comment="kpoint 5">
       <r>   -5.6673    1.0000 </r>
       <r>   -3.6622    1.0000 </r>
       <r>   -3.6454    1.0000 </r>
       <r>   -2.5372    1.0000 </r>
       <r>   -1.5332    1.0000 </r>
       <r>   -0.3180    1.0000 </r>
       <r>   -0.2947    1.0000 </r>
       <r>    1.4216    1.0000 </r>
       <r>    2.3322    1.0000 </r>
       <r>    2.3536    1.0000 </r>
       <r>    2.9213    1.0000 </r>
       <r>    2.9318    1.0000 </r>
       <r>    2.9506    1.0000 </r>
       <r>    3.2334    1.0000 </r>
       <r>    4.0438    1.0000 </r>
       <r>    5.3250    1.0000 </r>
       <r>    6.8452    0.0000 </r>
       <r>    7.5559    0.0000 </r>
       <r>    7.6209    0.0000 </r>
       <r>    8.2655    0.0000 </r>
       <r>    8.3120    0.0000 </r>
       <r>    8.5888    0.0000 </r>
       <r>    8.7371    0.0000 </r>
       <r>    8.9730    0.0000 </r>
      </set>
      <set comment="kpoint 6">
       <r>   -4.8968    1.0000 </r>
       <r>   -4.8968    1.0000 </r>
       <r>   -3.1375    1.0000 </r>
       <r>   -3.1375    1.0000 </r>
       <r>   -0.8874    1.0000 </r>
       <r>   -0.8874    1.0000 </r>
       <r>    1.3514    1.0000 </r>
       <r>    1.3514    1.0000 </r>
       <r>    1.4954    1.0000 </r>
       <r>    1.4954    1.0000 </r>
       <r>    2.9866    1.0000 </r>
       <r>    2.9866    1.0000 </r>
       <r>    3.0963    1.0000 </r>
       <r>    3.0963    1.0000 </r>
       <r>    4.2153    1.0000 </r>
       <r>    4.2153    1.0000 </r>
       <r>    8.1048    0.0000 </r>
       <r>    8.1048    0.0000 </r>
       <r>    8.4532    0.0000 </r>
       <r>    8.4532    0.0000 </r>
       <r>    9.4737    0.0000 </r>
       <r>    9.4737    0.0000 </r>
       <r>    9.8202    0.0000 </r>
       <r>    9.8203    0.0000 </r>
      </set>
      <set comment="kpoint 7">
       <r>   -5.1308    1.0000 </r>
       <r>   -5.1308    1.0000 </r>
       <r>   -1.9739    1.0000 </r>
       <r>   -1.9739    1.0000 </r>
       <r>   -1.9739    1.0000 </r>
       <r>   -1.9739    1.0000 </r>
       <r>    1.8598    1.0000 </r>
       <r>    1.8598    1.0000 </r>
       <r>    1.8598    1.0000 </r>
       <r>    1.8598    1.0000 </r>
       <r>    2.1187    1.0000 </r>
       <r>    2.1187    1.0000 </r>
       <r>    3.7581    1.0000 </r>
       <r>    3.7581    1.0000 </r>
       <r>    3.7705    1.0000 </r>
       <r>    3.7705    1.0000 </r>
       <r>    6.7634    0.0000 </r>
       <r>    6.7634    0.0000 </r>
       <r>    8.7652    0.0000 </r>
       <r>    8.7652    0.0000 </r>
       <r>    9.9164    0.0000 </r>
       <r>    9.9164    0.0000 </r>
       <r>    9.9164    0.0000 </r>
       <r>    9.9165    0.0000 </r>
      </set>
      <set comment="kpoint 8">
       <r>   -4.8897    1.0000 </r>
       <r>   -4.8897    1.0000 </r>
       <r>   -3.1459    1.0000 </r>
       <r>   -3.1459    1.0000 </r>
       <r>   -0.8928    1.0000 </r>
       <r>   -0.8928    1.0000 </r>
       <r>    1.3623    1.0000 </r>
       <r>    1.3623    1.0000 </r>
       <r>    1.5010    1.0000 </r>
       <r>    1.5010    1.0000 </r>
       <r>    2.9732    1.0000 </r>
       <r>    2.9732    1.0000 </r>
       <r>    3.0805    1.0000 </r>
       <r>    3.0805    1.0000 </r>
       <r>    4.2173    1.0000 </r>
       <r>    4.2173    1.0000 </r>
       <r>    8.0478    0.0000 </r>
       <r>    8.0478    0.0000 </r>
       <r>    8.4924    0.0000 </r>
       <r>    8.4924    0.0000 </r>
       <r>    9.4228    0.0000 </r>
       <r>    9.4228    0.0000 </r>
       <r>    9.8216    0.0000 </r>
       <r>    9.8216    0.0000 </r>
      </set>
      <set comment="kpoint 9">
       <r>   -4.1936    1.0000 </r>
       <r>   -4.1936    1.0000 </r>
       <r>   -4.1936    1.0000 </r>
       <r>   -4.1936    1.0000 </r>
       <r>    0.1894    1.0000 </r>
       <r>    0.1894    1.0000 </r>
       <r>    0.1894    1.0000 </r>
       <r>    0.1894    1.0000 </r>
       <r>    1.9623    1.0000 </r>
       <r>    1.9623    1.0000 </r>
       <r>    1.9623    1.0000 </r>
       <r>    1.9623    1.0000 </r>
       <r>    4.3076    1.0000 </r>
       <r>    4.3076    1.0000 </r>
       <r>    4.3076    1.0000 </r>
       <r>    4.3076    1.0000 </r>
       <r>    8.0490    0.0000 </r>
       <r>    8.0490    0.0000 </r>
       <r>    8.0490    0.0000 </r>
       <r>    8.0490    0.0000 </r>
       <r>   10.3733    0.0000 </r>
       <r>   10.3733    0.0000 </r>
       <r>   10.3733    0.0000 </r>
       <r>   10.3734    0.0000 </r>
      </set>
      <set comment="kpoint 10">
       <r>   -5.6649    1.0000 </r>
       <r>   -3.6445    1.0000 </r>
       <r>   -3.6445    1.0000 </r>
       <r>   -2.5461    1.0000 </r>
       <r>   -1.5608    1.0000 </r>
       <r>   -0.3013    1.0000 </r>
       <r>   -0.3013    1.0000 </r>
       <r>    1.4188    1.0000 </r>
       <r>    2.3171    1.0000 </r>
       <r>    2.3171    1.0000 </r>
       <r>    2.9270    1.0000 </r>
       <r>    2.9270    1.0000 </r>
       <r>    2.9489    1.0000 </r>
       <r>    3.2750    1.0000 </r>
       <r>    4.0159    1.0000 </r>
       <r>    5.3546    1.0000 </r>
       <r>    6.8899    0.0000 </r>
       <r>    7.5706    0.0000 </r>
       <r>    7.5706    0.0000 </r>
       <r>    8.2796    0.0000 </r>
       <r>    8.2796    0.0000 </r>
       <r>    8.6186    0.0000 </r>
       <r>    8.7317    0.0000 </r>
       <r>    8.9333    0.0000 </r>
      </set>
      <set comment="kpoint 11">
       <r>   -5.4119    1.0000 </r>
       <r>   -3.5398    1.0000 </r>
       <r>   -3.5264    1.0000 </r>
       <r>   -3.5264    1.0000 </r>
       <r>   -0.7058    1.0000 </r>
       <r>   -0.6995    1.0000 </r>
       <r>   -0.6995    1.0000 </r>
       <r>    1.7370    1.0000 </r>
       <r>    2.1474    1.0000 </r>
       <r>    2.1659    1.0000 </r>
       <r>    2.1659    1.0000 </r>
       <r>    3.4503    1.0000 </r>
       <r>    3.4503    1.0000 </r>
       <r>    3.4897    1.0000 </r>
       <r>    4.8596    1.0000 </r>
       <r>    4.8988    1.0000 </r>
       <r>    7.1548    0.0000 </r>
       <r>    7.1548    0.0000 </r>
       <r>    7.1945    0.0000 </r>
       <r>    7.5887    0.0000 </r>
       <r>    9.1110    0.0000 </r>
       <r>    9.1241    0.0000 </r>
       <r>   10.0392    0.0000 </r>
       <r>   10.0411    0.0000 </r>
      </set>
      <set comment="kpoint 12">
       <r>   -4.6736    1.0000 </r>
       <r>   -4.6736    1.0000 </r>
       <r>   -3.3839    1.0000 </r>
       <r>   -3.3839    1.0000 </r>
       <r>   -1.0824    1.0000 </r>
       <r>   -1.0824    1.0000 </r>
       <r>    0.3972    1.0000 </r>
       <r>    0.3972    1.0000 </r>
       <r>    2.2475    1.0000 </r>
       <r>    2.2475    1.0000 </r>
       <r>    3.5058    1.0000 </r>
       <r>    3.5058    1.0000 </r>
       <r>    3.7949    1.0000 </r>
       <r>    3.7949    1.0000 </r>
       <r>    4.0925    1.0000 </r>
       <r>    4.0925    1.0000 </r>
       <r>    7.8796    0.0000 </r>
       <r>    7.8796    0.0000 </r>
       <r>    8.6051    0.0000 </r>
       <r>    8.6051    0.0000 </r>
       <r>    8.7514    0.0000 </r>
       <r>    8.7514    0.0000 </r>
       <r>    9.1915    0.0000 </r>
       <r>    9.1915    0.0000 </r>
      </set>
      <set comment="kpoint 13">
       <r>   -4.8878    1.0000 </r>
       <r>   -4.8878    1.0000 </r>
       <r>   -3.1370    1.0000 </r>
       <r>   -3.1370    1.0000 </r>
       <r>   -0.9076    1.0000 </r>
       <r>   -0.9076    1.0000 </r>
       <r>    1.3529    1.0000 </r>
       <r>    1.3529    1.0000 </r>
       <r>    1.4762    1.0000 </r>
       <r>    1.4762    1.0000 </r>
       <r>    2.9521    1.0000 </r>
       <r>    2.9521    1.0000 </r>
       <r>    3.1157    1.0000 </r>
       <r>    3.1157    1.0000 </r>
       <r>    4.2387    1.0000 </r>
       <r>    4.2387    1.0000 </r>
       <r>    8.0581    0.0000 </r>
       <r>    8.0581    0.0000 </r>
       <r>    8.5302    0.0000 </r>
       <r>    8.5302    0.0000 </r>
       <r>    9.4755    0.0000 </r>
       <r>    9.4755    0.0000 </r>
       <r>    9.8488    0.0000 </r>
       <r>    9.8489    0.0000 </r>
      </set>
      <set comment="kpoint 14">
       <r>   -4.6672    1.0000 </r>
       <r>   -4.6672    1.0000 </r>
       <r>   -3.3871    1.0000 </r>
       <r>   -3.3871    1.0000 </r>
       <r>   -1.0880    1.0000 </r>
       <r>   -1.0880    1.0000 </r>
       <r>    0.3935    1.0000 </r>
       <r>    0.3935    1.0000 </r>
       <r>    2.2286    1.0000 </r>
       <r>    2.2286    1.0000 </r>
       <r>    3.5162    1.0000 </r>
       <r>    3.5162    1.0000 </r>
       <r>    3.8249    1.0000 </r>
       <r>    3.8249    1.0000 </r>
       <r>    4.0594    1.0000 </r>
       <r>    4.0594    1.0000 </r>
       <r>    7.8438    0.0000 </r>
       <r>    7.8438    0.0000 </r>
       <r>    8.6731    0.0000 </r>
       <r>    8.6731    0.0000 </r>
       <r>    8.7870    0.0000 </r>
       <r>    8.7870    0.0000 </r>
       <r>    9.2359    0.0000 </r>
       <r>    9.2359    0.0000 </r>
      </set>
      <set comment="kpoint 15">
       <r>   -4.0682    1.0000 </r>
       <r>   -4.0682    1.0000 </r>
       <r>   -4.0682    1.0000 </r>
       <r>   -4.0682    1.0000 </r>
       <r>   -0.6729    1.0000 </r>
       <r>   -0.6729    1.0000 </r>
       <r>   -0.6729    1.0000 </r>
       <r>   -0.6729    1.0000 </r>
       <r>    3.2144    1.0000 </r>
       <r>    3.2144    1.0000 </r>
       <r>    3.2144    1.0000 </r>
       <r>    3.2144    1.0000 </r>
       <r>    4.3682    1.0000 </r>
       <r>    4.3682    1.0000 </r>
       <r>    4.3682    1.0000 </r>
       <r>    4.3682    1.0000 </r>
       <r>    7.9276    0.0000 </r>
       <r>    7.9276    0.0000 </r>
       <r>    7.9276    0.0000 </r>
       <r>    7.9276    0.0000 </r>
       <r>    9.2495    0.0000 </r>
       <r>    9.2496    0.0000 </r>
       <r>    9.2496    0.0000 </r>
       <r>    9.2496    0.0000 </r>
      </set>
      <set comment="kpoint 16">
       <r>   -4.1871    1.0000 </r>
       <r>   -4.1871    1.0000 </r>
       <r>   -4.1871    1.0000 </r>
       <r>   -4.1871    1.0000 </r>
       <r>    0.1715    1.0000 </r>
       <r>    0.1715    1.0000 </r>
       <r>    0.1715    1.0000 </r>
       <r>    0.1715    1.0000 </r>
       <r>    1.9334    1.0000 </r>
       <r>    1.9334    1.0000 </r>
       <r>    1.9334    1.0000 </r>
       <r>    1.9334    1.0000 </r>
       <r>    4.3494    1.0000 </r>
       <r>    4.3494    1.0000 </r>
       <r>    4.3494    1.0000 </r>
       <r>    4.3494    1.0000 </r>
       <r>    8.0983    0.0000 </r>
       <r>    8.0983    0.0000 </r>
       <r>    8.0983    0.0000 </r>
       <r>    8.0983    0.0000 </r>
       <r>   10.3774    0.0000 </r>
       <r>   10.3774    0.0000 </r>
       <r>   10.3774    0.0000 </r>
       <r>   10.3781    0.0000 </r>
      </set>
      <set comment="kpoint 17">
       <r>   -4.0644    1.0000 </r>
       <r>   -4.0644    1.0000 </r>
       <r>   -4.0644    1.0000 </r>
       <r>   -4.0644    1.0000 </r>
       <r>   -0.6808    1.0000 </r>
       <r>   -0.6808    1.0000 </r>
       <r>   -0.6808    1.0000 </r>
       <r>   -0.6808    1.0000 </r>
       <r>    3.1790    1.0000 </r>
       <r>    3.1790    1.0000 </r>
       <r>    3.1790    1.0000 </r>
       <r>    3.1790    1.0000 </r>
       <r>    4.4080    1.0000 </r>
       <r>    4.4080    1.0000 </r>
       <r>    4.4080    1.0000 </r>
       <r>    4.4080    1.0000 </r>
       <r>    7.9675    0.0000 </r>
       <r>    7.9675    0.0000 </r>
       <r>    7.9675    0.0000 </r>
       <r>    7.9675    0.0000 </r>
       <r>    9.2057    0.0000 </r>
       <r>    9.2057    0.0000 </r>
       <r>    9.2058    0.0000 </r>
       <r>    9.2058    0.0000 </r>
      </set>
      <set comment="kpoint 18">
       <r>   -3.9164    1.0000 </r>
       <r>   -3.9164    1.0000 </r>
       <r>   -3.9164    1.0000 </r>
       <r>   -3.9164    1.0000 </r>
       <r>   -1.2482    1.0000 </r>
       <r>   -1.2482    1.0000 </r>
       <r>   -1.2482    1.0000 </r>
       <r>   -1.2482    1.0000 </r>
       <r>    4.4203    1.0000 </r>
       <r>    4.4203    1.0000 </r>
       <r>    4.4203    1.0000 </r>
       <r>    4.4203    1.0000 </r>
       <r>    4.4708    1.0000 </r>
       <r>    4.4708    1.0000 </r>
       <r>    4.4708    1.0000 </r>
       <r>    4.4708    1.0000 </r>
       <r>    7.0956    0.0000 </r>
       <r>    7.0956    0.0000 </r>
       <r>    7.0956    0.0000 </r>
       <r>    7.0956    0.0000 </r>
       <r>    8.9568    0.0000 </r>
       <r>    8.9572    0.0000 </r>
       <r>    8.9577    0.0000 </r>
       <r>    8.9582    0.0000 </r>
      </set>
     </set>
    </set>
   </array>
  </eigenvalues>
  <separator name="orbital magnetization" >
   <v name="MAGDIPOLOUT">      0.00000000      0.00000000      0.00000000</v>
  </separator>
  <dos>
   <i name="efermi">      5.67706367 </i>
   <total>
    <array>
     <dimension dim="1">gridpoints</dimension>
     <dimension dim="2">spin</dimension>
     <field>energy</field>
     <field>total</field>
     <field>integrated</field>
     <set>
      <set comment="spin 1">
       <r>    -7.0264     0.0000     0.0000 </r>
       <r>    -6.9656     0.0000     0.0000 </r>
       <r>    -6.9048     0.0000     0.0000 </r>
       <r>    -6.8440     0.0000     0.0000 </r>
       <r>    -6.7833     0.0000     0.0000 </r>
       <r>    -6.7225     0.0000     0.0000 </r>
       <r>    -6.6617     0.0000     0.0000 </r>
       <r>    -6.6009     0.0000     0.0000 </r>
       <r>    -6.5402     0.0000     0.0000 </r>
       <r>    -6.4794     0.0000     0.0000 </r>
       <r>    -6.4186     0.0000     0.0000 </r>
       <r>    -6.3578     0.0000     0.0000 </r>
       <r>    -6.2970     0.0000     0.0000 </r>
       <r>    -6.2363     0.0000     0.0000 </r>
       <r>    -6.1755     0.0016     0.0000 </r>
       <r>    -6.1147     0.0225     0.0006 </r>
       <r>    -6.0539     0.0678     0.0032 </r>
       <r>    -5.9932     0.1373     0.0094 </r>
       <r>    -5.9324     0.2312     0.0204 </r>
       <r>    -5.8716     0.3305     0.0376 </r>
       <r>    -5.8108     0.4052     0.0601 </r>
       <r>    -5.7500     0.4550     0.0864 </r>
       <r>    -5.6893     0.4799     0.1149 </r>
       <r>    -5.6285     0.4845     0.1442 </r>
       <r>    -5.5677     0.4954     0.1740 </r>
       <r>    -5.5069     0.5162     0.2047 </r>
       <r>    -5.4462     0.5470     0.2369 </r>
       <r>    -5.3854     0.5869     0.2713 </r>
       <r>    -5.3246     0.6298     0.3083 </r>
       <r>    -5.2638     0.6743     0.3479 </r>
       <r>    -5.2030     0.7203     0.3903 </r>
       <r>    -5.1423     0.7679     0.4355 </r>
       <r>    -5.0815     0.8124     0.4836 </r>
       <r>    -5.0207     0.8464     0.5341 </r>
       <r>    -4.9599     0.8697     0.5863 </r>
       <r>    -4.8992     0.8824     0.6396 </r>
       <r>    -4.8384     0.9909     0.6961 </r>
       <r>    -4.7776     1.1099     0.7600 </r>
       <r>    -4.7168     1.2241     0.8309 </r>
       <r>    -4.6561     1.3132     0.9085 </r>
       <r>    -4.5953     1.3217     0.9887 </r>
       <r>    -4.5345     1.3209     1.0690 </r>
       <r>    -4.4737     1.3108     1.1490 </r>
       <r>    -4.4129     1.2913     1.2282 </r>
       <r>    -4.3522     1.2625     1.3058 </r>
       <r>    -4.2914     1.2243     1.3814 </r>
       <r>    -4.2306     1.1767     1.4544 </r>
       <r>    -4.1698     1.1237     1.5243 </r>
       <r>    -4.1091     1.1095     1.5919 </r>
       <r>    -4.0483     1.1689     1.6604 </r>
       <r>    -3.9875     1.2868     1.7351 </r>
       <r>    -3.9267     1.3893     1.8165 </r>
       <r>    -3.8659     1.4769     1.9037 </r>
       <r>    -3.8052     1.7406     1.9998 </r>
       <r>    -3.7444     1.9476     2.1129 </r>
       <r>    -3.6836     1.9534     2.2325 </r>
       <r>    -3.6228     1.7941     2.3460 </r>
       <r>    -3.5621     1.8166     2.4550 </r>
       <r>    -3.5013     1.9427     2.5692 </r>
       <r>    -3.4405     2.0786     2.6913 </r>
       <r>    -3.3797     2.1771     2.8220 </r>
       <r>    -3.3189     1.8504     2.9441 </r>
       <r>    -3.2582     1.5678     3.0478 </r>
       <r>    -3.1974     1.3290     3.1356 </r>
       <r>    -3.1366     1.1406     3.2102 </r>
       <r>    -3.0758     1.0813     3.2777 </r>
       <r>    -3.0151     1.0252     3.3417 </r>
       <r>    -2.9543     0.9725     3.4024 </r>
       <r>    -2.8935     0.9231     3.4600 </r>
       <r>    -2.8327     0.8771     3.5147 </r>
       <r>    -2.7720     0.8344     3.5667 </r>
       <r>    -2.7112     0.7950     3.6162 </r>
       <r>    -2.6504     0.7589     3.6634 </r>
       <r>    -2.5896     0.7262     3.7085 </r>
       <r>    -2.5288     0.6975     3.7517 </r>
       <r>    -2.4681     0.6697     3.7933 </r>
       <r>    -2.4073     0.6354     3.8330 </r>
       <r>    -2.3465     0.5945     3.8704 </r>
       <r>    -2.2857     0.5471     3.9052 </r>
       <r>    -2.2250     0.4932     3.9368 </r>
       <r>    -2.1642     0.4328     3.9650 </r>
       <r>    -2.1034     0.3478     3.9891 </r>
       <r>    -2.0426     0.2557     4.0049 </r>
       <r>    -1.9818     0.2815     4.0207 </r>
       <r>    -1.9211     0.3684     4.0404 </r>
       <r>    -1.8603     0.4497     4.0653 </r>
       <r>    -1.7995     0.5232     4.0950 </r>
       <r>    -1.7387     0.5889     4.1288 </r>
       <r>    -1.6780     0.6467     4.1664 </r>
       <r>    -1.6172     0.6967     4.2072 </r>
       <r>    -1.5564     0.7389     4.2509 </r>
       <r>    -1.4956     0.7815     4.2971 </r>
       <r>    -1.4348     0.8325     4.3461 </r>
       <r>    -1.3741     0.8918     4.3984 </r>
       <r>    -1.3133     0.9594     4.4546 </r>
       <r>    -1.2525     1.0353     4.5152 </r>
       <r>    -1.1917     1.1443     4.5811 </r>
       <r>    -1.1310     1.3191     4.6556 </r>
       <r>    -1.0702     1.7741     4.7446 </r>
       <r>    -1.0094     2.5991     4.8796 </r>
       <r>    -0.9486     3.0077     5.0521 </r>
       <r>    -0.8879     2.9892     5.2366 </r>
       <r>    -0.8271     2.6575     5.4086 </r>
       <r>    -0.7663     2.2627     5.5584 </r>
       <r>    -0.7055     1.8048     5.6823 </r>
       <r>    -0.6447     1.5249     5.7811 </r>
       <r>    -0.5840     1.4020     5.8700 </r>
       <r>    -0.5232     1.2964     5.9519 </r>
       <r>    -0.4624     1.2083     6.0279 </r>
       <r>    -0.4016     1.1376     6.0991 </r>
       <r>    -0.3409     1.0842     6.1665 </r>
       <r>    -0.2801     1.1254     6.2323 </r>
       <r>    -0.2193     1.2048     6.3039 </r>
       <r>    -0.1585     1.1315     6.3756 </r>
       <r>    -0.0977     0.9203     6.4384 </r>
       <r>    -0.0370     0.8539     6.4914 </r>
       <r>     0.0238     0.8374     6.5427 </r>
       <r>     0.0846     0.8261     6.5932 </r>
       <r>     0.1454     0.8199     6.6432 </r>
       <r>     0.2061     0.8183     6.6930 </r>
       <r>     0.2669     0.8161     6.7427 </r>
       <r>     0.3277     0.8119     6.7922 </r>
       <r>     0.3885     0.8056     6.8413 </r>
       <r>     0.4493     0.7960     6.8900 </r>
       <r>     0.5100     0.7864     6.9381 </r>
[...]
        <r>  0.0072  0.0022  0.0071  0.0235  0.0000  0.0000  0.0000  0.0000  0.0000 </r>
        <r>  0.0048  0.0159  0.0016  0.0032  0.0000  0.0000  0.0000  0.0000  0.0000 </r>
        <r>  0.0074  0.0101  0.0035  0.0055  0.0000  0.0000  0.0000  0.0000  0.0000 </r>
        <r>  0.0052  0.0014  0.0043  0.0358  0.0000  0.0000  0.0000  0.0000  0.0000 </r>
        <r>  0.0024  0.0033  0.0099  0.0146  0.0000  0.0000  0.0000  0.0000  0.0000 </r>
        <r>  0.0131  0.0039  0.0012  0.0021  0.0000  0.0000  0.0000  0.0000  0.0000 </r>
       </set>
      </set>
      <set comment="kpoint 18">
       <set comment="band 1">
        <r>  0.0190  0.0001  0.0032  0.0008  0.0000  0.0000  0.0000  0.0000  0.0000 </r>
        <r>  0.0867  0.0022  0.0002  0.0003  0.0000  0.0000  0.0000  0.0000  0.0000 </r>
        <r>  0.0387  0.0032  0.0001  0.0004  0.0000  0.0000  0.0000  0.0000  0.0000 </r>
        <r>  0.0155  0.0002  0.0022  0.0017  0.0000  0.0000  0.0000  0.0000  0.0000 </r>
        <r>  0.0032  0.0004  0.0008  0.0032  0.0000  0.0000  0.0000  0.0000  0.0000 </r>
        <r>  0.1120  0.0017  0.0003  0.0002  0.0000  0.0000  0.0000  0.0000  0.0000 </r>
        <r>  0.1627  0.0008  0.0004  0.0001  0.0000  0.0000  0.0000  0.0000  0.0000 </r>
        <r>  0.0094  0.0003  0.0017  0.0022  0.0000  0.0000  0.0000  0.0000  0.0000 </r>
       </set>
       <set comment="band 2">
        <r>  0.0554  0.0024  0.0002  0.0008  0.0000  0.0000  0.0000  0.0000  0.0000 </r>
        <r>  0.0675  0.0021  0.0001  0.0009  0.0000  0.0000  0.0000  0.0000  0.0000 </r>
        <r>  0.0397  0.0002  0.0024  0.0011  0.0000  0.0000  0.0000  0.0000  0.0000 </r>
        <r>  0.0472  0.0001  0.0021  0.0013  0.0000  0.0000  0.0000  0.0000  0.0000 </r>
        <r>  0.1210  0.0011  0.0008  0.0002  0.0000  0.0000  0.0000  0.0000  0.0000 </r>
        <r>  0.1046  0.0013  0.0009  0.0001  0.0000  0.0000  0.0000  0.0000  0.0000 </r>
        <r>  0.0076  0.0008  0.0011  0.0024  0.0000  0.0000  0.0000  0.0000  0.0000 </r>
        <r>  0.0044  0.0009  0.0013  0.0021  0.0000  0.0000  0.0000  0.0000  0.0000 </r>
       </set>
       <set comment="band 3">
        <r>  0.0248  0.0006  0.0009  0.0024  0.0000  0.0000  0.0000  0.0000  0.0000 </r>
        <r>  0.0198  0.0000  0.0034  0.0007  0.0000  0.0000  0.0000  0.0000  0.0000 </r>
        <r>  0.1214  0.0009  0.0006  0.0005  0.0000  0.0000  0.0000  0.0000  0.0000 </r>
        <r>  0.0329  0.0034  0.0000  0.0004  0.0000  0.0000  0.0000  0.0000  0.0000 </r>
        <r>  0.0323  0.0005  0.0024  0.0009  0.0000  0.0000  0.0000  0.0000  0.0000 </r>
        <r>  0.0012  0.0004  0.0006  0.0034  0.0000  0.0000  0.0000  0.0000  0.0000 </r>
        <r>  0.0452  0.0024  0.0005  0.0006  0.0000  0.0000  0.0000  0.0000  0.0000 </r>
        <r>  0.1698  0.0006  0.0004  0.0000  0.0000  0.0000  0.0000  0.0000  0.0000 </r>
       </set>
       <set comment="band 4">
        <r>  0.1245  0.0013  0.0002  0.0005  0.0000  0.0000  0.0000  0.0000  0.0000 </r>
        <r>  0.0497  0.0001  0.0008  0.0025  0.0000  0.0000  0.0000  0.0000  0.0000 </r>
        <r>  0.0239  0.0002  0.0013  0.0025  0.0000  0.0000  0.0000  0.0000  0.0000 </r>
        <r>  0.1281  0.0008  0.0001  0.0010  0.0000  0.0000  0.0000  0.0000  0.0000 </r>
        <r>  0.0671  0.0025  0.0005  0.0002  0.0000  0.0000  0.0000  0.0000  0.0000 </r>
        <r>  0.0059  0.0010  0.0025  0.0008  0.0000  0.0000  0.0000  0.0000  0.0000 </r>
        <r>  0.0082  0.0005  0.0025  0.0013  0.0000  0.0000  0.0000  0.0000  0.0000 </r>
        <r>  0.0401  0.0025  0.0010  0.0001  0.0000  0.0000  0.0000  0.0000  0.0000 </r>
       </set>
       <set comment="band 5">
        <r>  0.0257  0.0019  0.0186  0.0024  0.0000  0.0000  0.0000  0.0000  0.0000 </r>
        <r>  0.0262  0.0016  0.0109  0.0102  0.0000  0.0000  0.0000  0.0000  0.0000 </r>
        <r>  0.0076  0.0186  0.0019  0.0079  0.0000  0.0000  0.0000  0.0000  0.0000 </r>
        <r>  0.0332  0.0109  0.0016  0.0081  0.0000  0.0000  0.0000  0.0000  0.0000 </r>
        <r>  0.0061  0.0079  0.0024  0.0186  0.0000  0.0000  0.0000  0.0000  0.0000 </r>
        <r>  0.0050  0.0081  0.0103  0.0108  0.0000  0.0000  0.0000  0.0000  0.0000 </r>
        <r>  0.0602  0.0024  0.0079  0.0019  0.0000  0.0000  0.0000  0.0000  0.0000 </r>
        <r>  0.0352  0.0103  0.0081  0.0016  0.0000  0.0000  0.0000  0.0000  0.0000 </r>
       </set>
       <set comment="band 6">
        <r>  0.0346  0.0019  0.0009  0.0173  0.0000  0.0000  0.0000  0.0000  0.0000 </r>
        <r>  0.0413  0.0030  0.0050  0.0100  0.0000  0.0000  0.0000  0.0000  0.0000 </r>
        <r>  0.0561  0.0009  0.0019  0.0107  0.0000  0.0000  0.0000  0.0000  0.0000 </r>
        <r>  0.0323  0.0050  0.0030  0.0127  0.0000  0.0000  0.0000  0.0000  0.0000 </r>
        <r>  0.0060  0.0107  0.0173  0.0009  0.0000  0.0000  0.0000  0.0000  0.0000 </r>
        <r>  0.0097  0.0128  0.0100  0.0050  0.0000  0.0000  0.0000  0.0000  0.0000 </r>
        <r>  0.0029  0.0173  0.0107  0.0019  0.0000  0.0000  0.0000  0.0000  0.0000 </r>
        <r>  0.0163  0.0100  0.0128  0.0030  0.0000  0.0000  0.0000  0.0000  0.0000 </r>
       </set>
       <set comment="band 7">
        <r>  0.0293  0.0030  0.0082  0.0106  0.0000  0.0000  0.0000  0.0000  0.0000 </r>
        <r>  0.0270  0.0198  0.0018  0.0008  0.0000  0.0000  0.0000  0.0000  0.0000 </r>
        <r>  0.0343  0.0082  0.0030  0.0090  0.0000  0.0000  0.0000  0.0000  0.0000 </r>
        <r>  0.0025  0.0018  0.0198  0.0083  0.0000  0.0000  0.0000  0.0000  0.0000 </r>
        <r>  0.0096  0.0090  0.0106  0.0081  0.0000  0.0000  0.0000  0.0000  0.0000 </r>
        <r>  0.0641  0.0083  0.0008  0.0018  0.0000  0.0000  0.0000  0.0000  0.0000 </r>
        <r>  0.0264  0.0106  0.0090  0.0030  0.0000  0.0000  0.0000  0.0000  0.0000 </r>
        <r>  0.0060  0.0008  0.0083  0.0198  0.0000  0.0000  0.0000  0.0000  0.0000 </r>
       </set>
       <set comment="band 8">
        <r>  0.0100  0.0241  0.0031  0.0005  0.0000  0.0000  0.0000  0.0000  0.0000 </r>
        <r>  0.0051  0.0064  0.0130  0.0097  0.0000  0.0000  0.0000  0.0000  0.0000 </r>
        <r>  0.0016  0.0031  0.0241  0.0031  0.0000  0.0000  0.0000  0.0000  0.0000 </r>
        <r>  0.0316  0.0130  0.0064  0.0016  0.0000  0.0000  0.0000  0.0000  0.0000 </r>
        <r>  0.0779  0.0031  0.0005  0.0031  0.0000  0.0000  0.0000  0.0000  0.0000 </r>
        <r>  0.0208  0.0016  0.0097  0.0130  0.0000  0.0000  0.0000  0.0000  0.0000 </r>
        <r>  0.0101  0.0005  0.0031  0.0240  0.0000  0.0000  0.0000  0.0000  0.0000 </r>
        <r>  0.0422  0.0097  0.0016  0.0064  0.0000  0.0000  0.0000  0.0000  0.0000 </r>
       </set>
       <set comment="band 9">
        <r>  0.0000  0.0227  0.0026  0.0402  0.0000  0.0000  0.0000  0.0000  0.0000 </r>
        <r>  0.0000  0.0177  0.0047  0.0476  0.0000  0.0000  0.0000  0.0000  0.0000 </r>
        <r>  0.0000  0.0026  0.0227  0.0020  0.0000  0.0000  0.0000  0.0000  0.0000 </r>
        <r>  0.0000  0.0047  0.0177  0.0062  0.0000  0.0000  0.0000  0.0000  0.0000 </r>
        <r>  0.0000  0.0005  0.0100  0.0104  0.0000  0.0000  0.0000  0.0000  0.0000 </r>
        <r>  0.0000  0.0016  0.0119  0.0188  0.0000  0.0000  0.0000  0.0000  0.0000 </r>
        <r>  0.0000  0.0100  0.0005  0.0911  0.0000  0.0000  0.0000  0.0000  0.0000 </r>
        <r>  0.0000  0.0119  0.0016  0.0710  0.0000  0.0000  0.0000  0.0000  0.0000 </r>
       </set>
       <set comment="band 10">
        <r>  0.0000  0.0006  0.0144  0.0504  0.0000  0.0000  0.0000  0.0000  0.0000 </r>
        <r>  0.0000  0.0160  0.0077  0.0434  0.0000  0.0000  0.0000  0.0000  0.0000 </r>
        <r>  0.0000  0.0144  0.0006  0.0332  0.0000  0.0000  0.0000  0.0000  0.0000 </r>
        <r>  0.0000  0.0077  0.0160  0.0056  0.0000  0.0000  0.0000  0.0000  0.0000 </r>
        <r>  0.0000  0.0083  0.0126  0.0578  0.0000  0.0000  0.0000  0.0000  0.0000 </r>
        <r>  0.0000  0.0014  0.0108  0.0308  0.0000  0.0000  0.0000  0.0000  0.0000 </r>
        <r>  0.0000  0.0126  0.0083  0.0023  0.0000  0.0000  0.0000  0.0000  0.0000 </r>
        <r>  0.0000  0.0108  0.0014  0.0639  0.0000  0.0000  0.0000  0.0000  0.0000 </r>
       </set>
       <set comment="band 11">
        <r>  0.0000  0.0083  0.0145  0.0265  0.0000  0.0000  0.0000  0.0000  0.0000 </r>
        <r>  0.0000  0.0018  0.0175  0.0332  0.0000  0.0000  0.0000  0.0000  0.0000 </r>
        <r>  0.0000  0.0145  0.0083  0.0259  0.0000  0.0000  0.0000  0.0000  0.0000 </r>
        <r>  0.0000  0.0175  0.0018  0.0332  0.0000  0.0000  0.0000  0.0000  0.0000 </r>
        <r>  0.0000  0.0065  0.0066  0.0580  0.0000  0.0000  0.0000  0.0000  0.0000 </r>
        <r>  0.0000  0.0083  0.0083  0.0703  0.0000  0.0000  0.0000  0.0000  0.0000 </r>
        <r>  0.0000  0.0066  0.0065  0.0333  0.0000  0.0000  0.0000  0.0000  0.0000 </r>
        <r>  0.0000  0.0083  0.0083  0.0071  0.0000  0.0000  0.0000  0.0000  0.0000 </r>
       </set>
       <set comment="band 12">
        <r>  0.0000  0.0042  0.0044  0.0266  0.0000  0.0000  0.0000  0.0000  0.0000 </r>
        <r>  0.0000  0.0004  0.0059  0.0195  0.0000  0.0000  0.0000  0.0000  0.0000 </r>
        <r>  0.0000  0.0044  0.0042  0.0826  0.0000  0.0000  0.0000  0.0000  0.0000 </r>
        <r>  0.0000  0.0059  0.0004  0.0987  0.0000  0.0000  0.0000  0.0000  0.0000 </r>
        <r>  0.0000  0.0206  0.0066  0.0175  0.0000  0.0000  0.0000  0.0000  0.0000 </r>
        <r>  0.0000  0.0246  0.0049  0.0238  0.0000  0.0000  0.0000  0.0000  0.0000 </r>
        <r>  0.0000  0.0066  0.0206  0.0170  0.0000  0.0000  0.0000  0.0000  0.0000 </r>
        <r>  0.0000  0.0049  0.0246  0.0017  0.0000  0.0000  0.0000  0.0000  0.0000 </r>
       </set>
       <set comment="band 13">
        <r>  0.0000  0.0189  0.0409  0.0000  0.0000  0.0000  0.0000  0.0000  0.0000 </r>
        <r>  0.0000  0.0324  0.0013  0.0000  0.0000  0.0000  0.0000  0.0000  0.0000 </r>
        <r>  0.0000  0.0409  0.0189  0.0000  0.0000  0.0000  0.0000  0.0000  0.0000 </r>
        <r>  0.0000  0.0013  0.0324  0.0000  0.0000  0.0000  0.0000  0.0000  0.0000 </r>
        <r>  0.0000  0.0089  0.0392  0.0000  0.0000  0.0000  0.0000  0.0000  0.0000 </r>
        <r>  0.0000  0.0287  0.0455  0.0000  0.0000  0.0000  0.0000  0.0000  0.0000 </r>
        <r>  0.0000  0.0392  0.0089  0.0000  0.0000  0.0000  0.0000  0.0000  0.0000 </r>
        <r>  0.0000  0.0455  0.0287  0.0000  0.0000  0.0000  0.0000  0.0000  0.0000 </r>
       </set>
       <set comment="band 14">
        <r>  0.0000  0.0068  0.0177  0.0000  0.0000  0.0000  0.0000  0.0000  0.0000 </r>
        <r>  0.0000  0.0180  0.0034  0.0000  0.0000  0.0000  0.0000  0.0000  0.0000 </r>
        <r>  0.0000  0.0177  0.0068  0.0000  0.0000  0.0000  0.0000  0.0000  0.0000 </r>
        <r>  0.0000  0.0034  0.0180  0.0000  0.0000  0.0000  0.0000  0.0000  0.0000 </r>
        <r>  0.0000  0.0723  0.0112  0.0000  0.0000  0.0000  0.0000  0.0000  0.0000 </r>
        <r>  0.0000  0.0523  0.0342  0.0000  0.0000  0.0000  0.0000  0.0000  0.0000 </r>
        <r>  0.0000  0.0112  0.0723  0.0000  0.0000  0.0000  0.0000  0.0000  0.0000 </r>
        <r>  0.0000  0.0342  0.0523  0.0000  0.0000  0.0000  0.0000  0.0000  0.0000 </r>
       </set>
       <set comment="band 15">
        <r>  0.0000  0.0676  0.0112  0.0000  0.0000  0.0000  0.0000  0.0000  0.0000 </r>
        <r>  0.0000  0.0507  0.0104  0.0000  0.0000  0.0000  0.0000  0.0000  0.0000 </r>
        <r>  0.0000  0.0112  0.0676  0.0000  0.0000  0.0000  0.0000  0.0000  0.0000 </r>
        <r>  0.0000  0.0104  0.0507  0.0000  0.0000  0.0000  0.0000  0.0000  0.0000 </r>
        <r>  0.0000  0.0140  0.0151  0.0000  0.0000  0.0000  0.0000  0.0000  0.0000 </r>
        <r>  0.0000  0.0269  0.0199  0.0000  0.0000  0.0000  0.0000  0.0000  0.0000 </r>
        <r>  0.0000  0.0151  0.0140  0.0000  0.0000  0.0000  0.0000  0.0000  0.0000 </r>
        <r>  0.0000  0.0199  0.0269  0.0000  0.0000  0.0000  0.0000  0.0000  0.0000 </r>
       </set>
       <set comment="band 16">
        <r>  0.0000  0.0146  0.0382  0.0000  0.0000  0.0000  0.0000  0.0000  0.0000 </r>
        <r>  0.0000  0.0068  0.0928  0.0000  0.0000  0.0000  0.0000  0.0000  0.0000 </r>
        <r>  0.0000  0.0382  0.0146  0.0000  0.0000  0.0000  0.0000  0.0000  0.0000 </r>
        <r>  0.0000  0.0928  0.0068  0.0000  0.0000  0.0000  0.0000  0.0000  0.0000 </r>
        <r>  0.0000  0.0127  0.0424  0.0000  0.0000  0.0000  0.0000  0.0000  0.0000 </r>
        <r>  0.0000  0.0000  0.0083  0.0000  0.0000  0.0000  0.0000  0.0000  0.0000 </r>
        <r>  0.0000  0.0424  0.0127  0.0000  0.0000  0.0000  0.0000  0.0000  0.0000 </r>
        <r>  0.0000  0.0083  0.0000  0.0000  0.0000  0.0000  0.0000  0.0000  0.0000 </r>
       </set>
       <set comment="band 17">
        <r>  0.0483  0.0005  0.0045  0.0004  0.0000  0.0000  0.0000  0.0000  0.0000 </r>
        <r>  0.0508  0.0004  0.0026  0.0019  0.0000  0.0000  0.0000  0.0000  0.0000 </r>
        <r>  0.0136  0.0045  0.0005  0.0016  0.0000  0.0000  0.0000  0.0000  0.0000 </r>
        <r>  0.0586  0.0026  0.0004  0.0016  0.0000  0.0000  0.0000  0.0000  0.0000 </r>
        <r>  0.0117  0.0019  0.0005  0.0036  0.0000  0.0000  0.0000  0.0000  0.0000 </r>
        <r>  0.0096  0.0020  0.0024  0.0021  0.0000  0.0000  0.0000  0.0000  0.0000 </r>
        <r>  0.1112  0.0005  0.0019  0.0004  0.0000  0.0000  0.0000  0.0000  0.0000 </r>
        <r>  0.0658  0.0024  0.0020  0.0003  0.0000  0.0000  0.0000  0.0000  0.0000 </r>
       </set>
       <set comment="band 18">
        <r>  0.0631  0.0004  0.0002  0.0034  0.0000  0.0000  0.0000  0.0000  0.0000 </r>
        <r>  0.0746  0.0007  0.0012  0.0020  0.0000  0.0000  0.0000  0.0000  0.0000 </r>
        <r>  0.1050  0.0002  0.0004  0.0020  0.0000  0.0000  0.0000  0.0000  0.0000 </r>
        <r>  0.0625  0.0012  0.0007  0.0024  0.0000  0.0000  0.0000  0.0000  0.0000 </r>
        <r>  0.0105  0.0025  0.0042  0.0002  0.0000  0.0000  0.0000  0.0000  0.0000 </r>
        <r>  0.0179  0.0030  0.0025  0.0010  0.0000  0.0000  0.0000  0.0000  0.0000 </r>
        <r>  0.0061  0.0042  0.0025  0.0003  0.0000  0.0000  0.0000  0.0000  0.0000 </r>
        <r>  0.0297  0.0025  0.0030  0.0006  0.0000  0.0000  0.0000  0.0000  0.0000 </r>
       </set>
       <set comment="band 19">
        <r>  0.0547  0.0007  0.0020  0.0020  0.0000  0.0000  0.0000  0.0000  0.0000 </r>
        <r>  0.0502  0.0048  0.0004  0.0002  0.0000  0.0000  0.0000  0.0000  0.0000 </r>
        <r>  0.0632  0.0020  0.0007  0.0018  0.0000  0.0000  0.0000  0.0000  0.0000 </r>
        <r>  0.0048  0.0004  0.0048  0.0016  0.0000  0.0000  0.0000  0.0000  0.0000 </r>
        <r>  0.0178  0.0022  0.0025  0.0016  0.0000  0.0000  0.0000  0.0000  0.0000 </r>
        <r>  0.1188  0.0020  0.0002  0.0004  0.0000  0.0000  0.0000  0.0000  0.0000 </r>
        <r>  0.0490  0.0025  0.0022  0.0006  0.0000  0.0000  0.0000  0.0000  0.0000 </r>
        <r>  0.0110  0.0002  0.0020  0.0038  0.0000  0.0000  0.0000  0.0000  0.0000 </r>
       </set>
       <set comment="band 20">
        <r>  0.0187  0.0058  0.0007  0.0001  0.0000  0.0000  0.0000  0.0000  0.0000 </r>
        <r>  0.0092  0.0015  0.0031  0.0019  0.0000  0.0000  0.0000  0.0000  0.0000 </r>
        <r>  0.0029  0.0007  0.0058  0.0006  0.0000  0.0000  0.0000  0.0000  0.0000 </r>
        <r>  0.0588  0.0031  0.0015  0.0003  0.0000  0.0000  0.0000  0.0000  0.0000 </r>
        <r>  0.1447  0.0007  0.0001  0.0006  0.0000  0.0000  0.0000  0.0000  0.0000 </r>
        <r>  0.0385  0.0004  0.0024  0.0025  0.0000  0.0000  0.0000  0.0000  0.0000 </r>
        <r>  0.0184  0.0001  0.0007  0.0047  0.0000  0.0000  0.0000  0.0000  0.0000 </r>
        <r>  0.0782  0.0024  0.0004  0.0012  0.0000  0.0000  0.0000  0.0000  0.0000 </r>
       </set>
       <set comment="band 21">
        <r>  0.0000  0.0009  0.0085  0.0049  0.0000  0.0000  0.0000  0.0000  0.0000 </r>
        <r>  0.0000  0.0006  0.0045  0.0212  0.0000  0.0000  0.0000  0.0000  0.0000 </r>
        <r>  0.0000  0.0100  0.0009  0.0165  0.0000  0.0000  0.0000  0.0000  0.0000 </r>
        <r>  0.0000  0.0063  0.0010  0.0168  0.0000  0.0000  0.0000  0.0000  0.0000 </r>
        <r>  0.0000  0.0044  0.0012  0.0385  0.0000  0.0000  0.0000  0.0000  0.0000 </r>
        <r>  0.0000  0.0050  0.0056  0.0225  0.0000  0.0000  0.0000  0.0000  0.0000 </r>
        <r>  0.0001  0.0011  0.0036  0.0039  0.0000  0.0000  0.0000  0.0000  0.0000 </r>
        <r>  0.0000  0.0046  0.0032  0.0032  0.0000  0.0000  0.0000  0.0000  0.0000 </r>
       </set>
       <set comment="band 22">
        <r>  0.0000  0.0004  0.0003  0.0356  0.0000  0.0000  0.0000  0.0000  0.0000 </r>
        <r>  0.0000  0.0006  0.0017  0.0205  0.0000  0.0000  0.0000  0.0000  0.0000 </r>
        <r>  0.0001  0.0009  0.0020  0.0220  0.0000  0.0000  0.0000  0.0000  0.0000 </r>
        <r>  0.0000  0.0034  0.0029  0.0262  0.0000  0.0000  0.0000  0.0000  0.0000 </r>
        <r>  0.0000  0.0041  0.0069  0.0018  0.0000  0.0000  0.0000  0.0000  0.0000 </r>
        <r>  0.0000  0.0052  0.0036  0.0103  0.0000  0.0000  0.0000  0.0000  0.0000 </r>
        <r>  0.0000  0.0103  0.0067  0.0038  0.0000  0.0000  0.0000  0.0000  0.0000 </r>
        <r>  0.0000  0.0065  0.0076  0.0061  0.0000  0.0000  0.0000  0.0000  0.0000 </r>
       </set>
       <set comment="band 23">
        <r>  0.0000  0.0019  0.0026  0.0216  0.0000  0.0000  0.0000  0.0000  0.0000 </r>
        <r>  0.0000  0.0145  0.0005  0.0016  0.0000  0.0000  0.0000  0.0000  0.0000 </r>
        <r>  0.0000  0.0057  0.0011  0.0184  0.0000  0.0000  0.0000  0.0000  0.0000 </r>
        <r>  0.0000  0.0015  0.0057  0.0170  0.0000  0.0000  0.0000  0.0000  0.0000 </r>
        <r>  0.0000  0.0044  0.0029  0.0166  0.0000  0.0000  0.0000  0.0000  0.0000 </r>
        <r>  0.0001  0.0042  0.0006  0.0038  0.0000  0.0000  0.0000  0.0000  0.0000 </r>
        <r>  0.0000  0.0089  0.0049  0.0060  0.0000  0.0000  0.0000  0.0000  0.0000 </r>
        <r>  0.0000  0.0007  0.0046  0.0402  0.0000  0.0000  0.0000  0.0000  0.0000 </r>
       </set>
       <set comment="band 24">
        <r>  0.0000  0.0077  0.0006  0.0010  0.0000  0.0000  0.0000  0.0000  0.0000 </r>
        <r>  0.0000  0.0026  0.0070  0.0196  0.0000  0.0000  0.0000  0.0000  0.0000 </r>
        <r>  0.0000  0.0030  0.0174  0.0062  0.0000  0.0000  0.0000  0.0000  0.0000 </r>
        <r>  0.0000  0.0073  0.0037  0.0032  0.0000  0.0000  0.0000  0.0000  0.0000 </r>
        <r>  0.0001  0.0011  0.0011  0.0063  0.0000  0.0000  0.0000  0.0000  0.0000 </r>
        <r>  0.0000  0.0002  0.0088  0.0262  0.0000  0.0000  0.0000  0.0000  0.0000 </r>
        <r>  0.0000  0.0001  0.0021  0.0484  0.0000  0.0000  0.0000  0.0000  0.0000 </r>
        <r>  0.0000  0.0019  0.0017  0.0129  0.0000  0.0000  0.0000  0.0000  0.0000 </r>
       </set>
      </set>
     </set>
    </set>
   </array>
  </projected>
 </calculation>
 <structure name="finalpos" >
  <crystal>
   <varray name="basis" >
    <v>       5.48619701      -0.00000000       0.00000000 </v>
    <v>       0.00000000       5.45670468       0.00000000 </v>
    <v>       0.00000000       0.00000000       5.45670468 </v>
   </varray>
   <i name="volume">    163.35495058 </i>
   <varray name="rec_basis" >
    <v>       0.18227563       0.00000000       0.00000000 </v>
    <v>       0.00000000       0.18326079       0.00000000 </v>
    <v>       0.00000000       0.00000000       0.18326079 </v>
   </varray>
  </crystal>
  <varray name="positions" >
   <v>       0.25000000       0.25000000       0.25000000 </v>
   <v>       0.50000000       0.50000000       0.00000000 </v>
   <v>       0.25000000       0.75000000       0.75000000 </v>
   <v>       0.50000000      -0.00000000       0.50000000 </v>
   <v>       0.75000000       0.25000000       0.75000000 </v>
   <v>      -0.00000000       0.50000000       0.50000000 </v>
   <v>       0.75000000       0.75000000       0.25000000 </v>
   <v>       0.00000000      -0.00000000       0.00000000 </v>
  </varray>
 </structure>
</modeling>
