 vasp.5.4.4.18Apr17-6-g9f103f2a35 (build Feb 10 2018 14:21:16) complex          
  
 executed on IFC17.0.2.174_CrayMP date 2018.08.02  11:41:48
 running on    2 total cores
 distrk:  each k-point on    2 cores,    1 groups
 distr:  one band on NCORES_PER_BAND=   1 cores,    2 groups


--------------------------------------------------------------------------------------------------------


 INCAR:
 POTCAR:   PAW_PBE Si 05Jan2001                   
 POTCAR:   PAW_PBE Si 05Jan2001                   
   VRHFIN =Si: s2p2                                                             
   LEXCH  = PE                                                                  
   EATOM  =   103.0669 eV,    7.5752 Ry                                         
                                                                                
   TITEL  = PAW_PBE Si 05Jan2001                                                
   LULTRA =        F    use ultrasoft PP ?                                      
   IUNSCR =        1    unscreen: 0-lin 1-nonlin 2-no                           
   RPACOR =    1.500    partial core radius                                     
   POMASS =   28.085; ZVAL   =    4.000    mass and valenz                      
   RCORE  =    1.900    outmost cutoff radius                                   
   RWIGS  =    2.480; RWIGS  =    1.312    wigner-seitz radius (au A)           
   ENMAX  =  245.345; ENMIN  =  184.009 eV                                      
   ICORE  =        2    local potential                                         
   LCOR   =        T    correct aug charges                                     
   LPAW   =        T    paw PP                                                  
   EAUG   =  322.069                                                            
   DEXC   =    -.007                                                            
   RMAX   =    2.944    core radius for proj-oper                               
   RAUG   =    1.300    factor for augmentation sphere                          
   RDEP   =    1.993    radius for radial grids                                 
   QCUT   =   -4.246; QGAM   =    8.493    optimization parameters              
                                                                                
   Description                                                                  
     l     E      TYP  RCUT    TYP  RCUT                                        
     0   .000     23  1.900                                                     
     0   .000     23  1.900                                                     
     1   .000     23  1.900                                                     
     1   .000     23  1.900                                                     
     2   .000      7  1.900                                                     
  local pseudopotential read in
  partial core-charges read in
  atomic valenz-charges read in
  non local Contribution for L=           0  read in
    real space projection operators read in
  non local Contribution for L=           0  read in
    real space projection operators read in
  non local Contribution for L=           1  read in
    real space projection operators read in
  non local Contribution for L=           1  read in
    real space projection operators read in
    PAW grid and wavefunctions read in
 
   number of l-projection  operators is LMAX  =           4
   number of lm-projection operators is LMMAX =           8
 

 ----------------------------------------------------------------------------- 
|                                                                             |
|  ADVICE TO THIS USER RUNNING 'VASP/VAMP'   (HEAR YOUR MASTER'S VOICE ...):  |
|                                                                             |
|      You have a (more or less) 'small supercell' and for smaller cells      |
|      it is recommended  to use the reciprocal-space projection scheme!      |
|      The real space optimization is not  efficient for small cells and it   |
|      is also less accurate ...                                              |
|      Therefore set LREAL=.FALSE. in the  INCAR file                         |
|                                                                             |
 ----------------------------------------------------------------------------- 

 Optimization of the real space projectors (new method)

 maximal supplied QI-value         = 19.84
 optimisation between [QCUT,QGAM] = [ 11.51, 23.22] = [ 37.09,150.92] Ry 
 Optimized for a Real-space Cutoff    1.21 Angstroem

   l    n(q)    QCUT    max X(q) W(low)/X(q) W(high)/X(q)  e(spline) 
   0      8    11.508     8.708    0.18E-04    0.44E-05    0.47E-08
   0      8    11.508   106.241    0.70E-04    0.15E-03    0.51E-07
   1      8    11.508     5.901    0.63E-05    0.23E-04    0.21E-07
   1      8    11.508    73.241    0.15E-03    0.36E-04    0.79E-07
 PAW_PBE Si 05Jan2001                   :
 energy of atom  1       EATOM= -103.0669
 kinetic energy error for atom=    0.0005 (will be added to EATOM!!)
 
 
 POSCAR: Si1                                     
  positions in direct lattice
  velocities in cartesian coordinates
 exchange correlation table for  LEXCH =        8
   RHO(1)=    0.500       N(1)  =     2000
   RHO(2)=  100.500       N(2)  =     4000
 


--------------------------------------------------------------------------------------------------------


 ion  position               nearest neighbor table
   1  0.000  0.000  0.000-
 
  LATTYP: Found a face centered cubic cell.
 ALAT       =     3.8694848823
  
  Lattice vectors:
  
 A1 = (   2.3695660000,   0.0000000000,   1.3680690000)
 A2 = (   0.7898550000,   2.2340480000,   1.3680690000)
 A3 = (   0.0000000000,   0.0000000000,   2.7361390000)


Analysis of symmetry for initial positions (statically):
=====================================================================
 Subroutine PRICEL returns:
 Original cell was already a primitive cell.
 

 Routine SETGRP: Setting up the symmetry group for a 
 face centered cubic supercell.


 Subroutine GETGRP returns: Found 48 space group operations
 (whereof 48 operations were pure point group operations)
 out of a pool of 48 trial point group operations.


The static configuration has the point symmetry O_h .


Analysis of symmetry for dynamics (positions and initial velocities):
=====================================================================
 Subroutine PRICEL returns:
 Original cell was already a primitive cell.
 

 Routine SETGRP: Setting up the symmetry group for a 
 face centered cubic supercell.


 Subroutine GETGRP returns: Found 48 space group operations
 (whereof 48 operations were pure point group operations)
 out of a pool of 48 trial point group operations.


The dynamic configuration has the point symmetry O_h .


Analysis of structural, dynamic, and magnetic symmetry:
=====================================================================
 Subroutine PRICEL returns:
 Original cell was already a primitive cell.
 

 Routine SETGRP: Setting up the symmetry group for a 
 face centered cubic supercell.


 Subroutine GETGRP returns: Found 48 space group operations
 (whereof 48 operations were pure point group operations)
 out of a pool of 48 trial point group operations.


The magnetic configuration has the point symmetry O_h .


 Subroutine INISYM returns: Found 48 space group operations
 (whereof 48 operations are pure point group operations),
 and found     1 'primitive' translations

 
 
 KPOINTS: pymatgen 4.7.6+ generated KPOINTS with g

Automatic generation of k-mesh.
Space group operators:
 irot       det(A)        alpha          n_x          n_y          n_z        tau_x        tau_y        tau_z
    1     1.000000     0.000000     1.000000     0.000000     0.000000     0.000000     0.000000     0.000000
    2    -1.000000     0.000000     1.000000     0.000000     0.000000     0.000000     0.000000     0.000000
    3     1.000000   120.000000    -0.471405    -0.333333    -0.816496     0.000000     0.000000     0.000000
    4    -1.000000   120.000000    -0.471405    -0.333333    -0.816496     0.000000     0.000000     0.000000
    5     1.000000   120.000000     0.471404     0.333333     0.816497     0.000000     0.000000     0.000000
    6    -1.000000   120.000000     0.471404     0.333333     0.816497     0.000000     0.000000     0.000000
    7     1.000000    90.000000    -0.816496    -0.577350     0.000000     0.000000     0.000000     0.000000
    8    -1.000000    90.000000    -0.816496    -0.577350     0.000000     0.000000     0.000000     0.000000
    9     1.000000   180.000000     0.866025     0.000000     0.500000     0.000000     0.000000     0.000000
   10    -1.000000   180.000000     0.866025     0.000000     0.500000     0.000000     0.000000     0.000000
   11     1.000000    90.000000     0.408248    -0.577350     0.707107     0.000000     0.000000     0.000000
   12    -1.000000    90.000000     0.408248    -0.577350     0.707107     0.000000     0.000000     0.000000
   13     1.000000   180.000000     0.816496     0.577350     0.000000     0.000000     0.000000     0.000000
   14    -1.000000   180.000000     0.816496     0.577350     0.000000     0.000000     0.000000     0.000000
   15     1.000000   120.000000     0.942809    -0.333333    -0.000000     0.000000     0.000000     0.000000
   16    -1.000000   120.000000     0.942809    -0.333333    -0.000000     0.000000     0.000000     0.000000
   17     1.000000   120.000000     0.000000    -1.000000    -0.000000     0.000000     0.000000     0.000000
   18    -1.000000   120.000000     0.000000    -1.000000    -0.000000     0.000000     0.000000     0.000000
   19     1.000000    90.000000     0.816497     0.577350    -0.000000     0.000000     0.000000     0.000000
   20    -1.000000    90.000000     0.816497     0.577350    -0.000000     0.000000     0.000000     0.000000
   21     1.000000    90.000000     0.408248    -0.577350    -0.707107     0.000000     0.000000     0.000000
   22    -1.000000    90.000000     0.408248    -0.577350    -0.707107     0.000000     0.000000     0.000000
   23     1.000000   180.000000     0.288675     0.816497     0.500000     0.000000     0.000000     0.000000
   24    -1.000000   180.000000     0.288675     0.816497     0.500000     0.000000     0.000000     0.000000
   25     1.000000   120.000000     0.000000     1.000000    -0.000000     0.000000     0.000000     0.000000
   26    -1.000000   120.000000     0.000000     1.000000    -0.000000     0.000000     0.000000     0.000000
   27     1.000000   120.000000     0.471404     0.333333    -0.816497     0.000000     0.000000     0.000000
   28    -1.000000   120.000000     0.471404     0.333333    -0.816497     0.000000     0.000000     0.000000
   29     1.000000   180.000000    -0.408248     0.577350     0.707107     0.000000     0.000000     0.000000
   30    -1.000000   180.000000    -0.408248     0.577350     0.707107     0.000000     0.000000     0.000000
   31     1.000000    90.000000    -0.408248     0.577350    -0.707107     0.000000     0.000000     0.000000
   32    -1.000000    90.000000    -0.408248     0.577350    -0.707107     0.000000     0.000000     0.000000
   33     1.000000   179.999999     0.000000     0.000000     1.000000     0.000000     0.000000     0.000000
   34    -1.000000   179.999999     0.000000     0.000000     1.000000     0.000000     0.000000     0.000000
   35     1.000000    90.000000    -0.408248     0.577350     0.707107     0.000000     0.000000     0.000000
   36    -1.000000    90.000000    -0.408248     0.577350     0.707107     0.000000     0.000000     0.000000
   37     1.000000   120.000000    -0.942809     0.333333     0.000000     0.000000     0.000000     0.000000
   38    -1.000000   120.000000    -0.942809     0.333333     0.000000     0.000000     0.000000     0.000000
   39     1.000000   180.000000    -0.408248     0.577350    -0.707107     0.000000     0.000000     0.000000
   40    -1.000000   180.000000    -0.408248     0.577350    -0.707107     0.000000     0.000000     0.000000
   41     1.000000   120.000000    -0.471404    -0.333333     0.816497     0.000000     0.000000     0.000000
   42    -1.000000   120.000000    -0.471404    -0.333333     0.816497     0.000000     0.000000     0.000000
   43     1.000000   180.000000     0.288675     0.816497    -0.500000     0.000000     0.000000     0.000000
   44    -1.000000   180.000000     0.288675     0.816497    -0.500000     0.000000     0.000000     0.000000
   45     1.000000   180.000000     0.577350    -0.816497     0.000000     0.000000     0.000000     0.000000
   46    -1.000000   180.000000     0.577350    -0.816497     0.000000     0.000000     0.000000     0.000000
   47     1.000000   180.000000     0.866025     0.000000    -0.500000     0.000000     0.000000     0.000000
   48    -1.000000   180.000000     0.866025     0.000000    -0.500000     0.000000     0.000000     0.000000
 
 Subroutine IBZKPT returns following result:
 ===========================================
 
 Found    110 irreducible k-points:
 
 Following reciprocal coordinates:
            Coordinates               Weight
  0.050000  0.050000  0.050000     96.000000
  0.150000  0.050000  0.050000    288.000000
  0.250000  0.050000  0.050000    288.000000
  0.350000  0.050000  0.050000    288.000000
  0.450000  0.050000  0.050000    288.000000
 -0.450000  0.050000  0.050000    288.000000
 -0.350000  0.050000  0.050000    288.000000
 -0.250000  0.050000  0.050000    288.000000
 -0.150000  0.050000  0.050000    288.000000
 -0.050000  0.050000  0.050000    288.000000
  0.150000  0.150000  0.050000    288.000000
  0.250000  0.150000  0.050000    576.000000
  0.350000  0.150000  0.050000    576.000000
  0.450000  0.150000  0.050000    576.000000
 -0.450000  0.150000  0.050000    576.000000
 -0.350000  0.150000  0.050000    576.000000
 -0.250000  0.150000  0.050000    576.000000
 -0.150000  0.150000  0.050000    576.000000
 -0.050000  0.150000  0.050000    576.000000
  0.250000  0.250000  0.050000    288.000000
  0.350000  0.250000  0.050000    576.000000
  0.450000  0.250000  0.050000    576.000000
 -0.450000  0.250000  0.050000    576.000000
 -0.350000  0.250000  0.050000    576.000000
 -0.250000  0.250000  0.050000    576.000000
 -0.150000  0.250000  0.050000    576.000000
 -0.050000  0.250000  0.050000    576.000000
  0.350000  0.350000  0.050000    288.000000
  0.450000  0.350000  0.050000    576.000000
 -0.450000  0.350000  0.050000    576.000000
 -0.350000  0.350000  0.050000    576.000000
 -0.250000  0.350000  0.050000    576.000000
 -0.150000  0.350000  0.050000    576.000000
 -0.050000  0.350000  0.050000    576.000000
  0.450000  0.450000  0.050000    288.000000
 -0.450000  0.450000  0.050000    576.000000
 -0.350000  0.450000  0.050000    576.000000
 -0.250000  0.450000  0.050000    576.000000
 -0.150000  0.450000  0.050000    576.000000
 -0.050000  0.450000  0.050000    576.000000
 -0.450000 -0.450000  0.050000    288.000000
 -0.350000 -0.450000  0.050000    576.000000
 -0.250000 -0.450000  0.050000    576.000000
 -0.150000 -0.450000  0.050000    576.000000
 -0.350000 -0.350000  0.050000    288.000000
 -0.250000 -0.350000  0.050000    576.000000
 -0.150000 -0.350000  0.050000    576.000000
 -0.250000 -0.250000  0.050000    288.000000
 -0.150000 -0.250000  0.050000    576.000000
 -0.150000 -0.150000  0.050000    288.000000
  0.150000  0.150000  0.150000     96.000000
  0.250000  0.150000  0.150000    288.000000
  0.350000  0.150000  0.150000    288.000000
  0.450000  0.150000  0.150000    288.000000
 -0.450000  0.150000  0.150000    288.000000
 -0.350000  0.150000  0.150000    288.000000
 -0.250000  0.150000  0.150000    288.000000
 -0.150000  0.150000  0.150000    288.000000
  0.250000  0.250000  0.150000    288.000000
  0.350000  0.250000  0.150000    576.000000
  0.450000  0.250000  0.150000    576.000000
 -0.450000  0.250000  0.150000    576.000000
 -0.350000  0.250000  0.150000    576.000000
 -0.250000  0.250000  0.150000    576.000000
 -0.150000  0.250000  0.150000    576.000000
  0.350000  0.350000  0.150000    288.000000
  0.450000  0.350000  0.150000    576.000000
 -0.450000  0.350000  0.150000    576.000000
 -0.350000  0.350000  0.150000    576.000000
 -0.250000  0.350000  0.150000    576.000000
 -0.150000  0.350000  0.150000    576.000000
  0.450000  0.450000  0.150000    288.000000
 -0.450000  0.450000  0.150000    576.000000
 -0.350000  0.450000  0.150000    576.000000
 -0.250000  0.450000  0.150000    576.000000
 -0.150000  0.450000  0.150000    576.000000
 -0.450000 -0.450000  0.150000    288.000000
 -0.350000 -0.450000  0.150000    576.000000
 -0.250000 -0.450000  0.150000    576.000000
 -0.350000 -0.350000  0.150000    288.000000
 -0.250000 -0.350000  0.150000    576.000000
 -0.250000 -0.250000  0.150000    288.000000
  0.250000  0.250000  0.250000     96.000000
  0.350000  0.250000  0.250000    288.000000
  0.450000  0.250000  0.250000    288.000000
 -0.450000  0.250000  0.250000    288.000000
 -0.350000  0.250000  0.250000    288.000000
 -0.250000  0.250000  0.250000    288.000000
  0.350000  0.350000  0.250000    288.000000
  0.450000  0.350000  0.250000    576.000000
 -0.450000  0.350000  0.250000    576.000000
 -0.350000  0.350000  0.250000    576.000000
 -0.250000  0.350000  0.250000    576.000000
  0.450000  0.450000  0.250000    288.000000
 -0.450000  0.450000  0.250000    576.000000
 -0.350000  0.450000  0.250000    576.000000
 -0.250000  0.450000  0.250000    576.000000
 -0.450000 -0.450000  0.250000    288.000000
 -0.350000 -0.450000  0.250000    576.000000
 -0.350000 -0.350000  0.250000    288.000000
  0.350000  0.350000  0.350000     96.000000
  0.450000  0.350000  0.350000    288.000000
 -0.450000  0.350000  0.350000    288.000000
 -0.350000  0.350000  0.350000    288.000000
  0.450000  0.450000  0.350000    288.000000
 -0.450000  0.450000  0.350000    576.000000
 -0.350000  0.450000  0.350000    576.000000
 -0.450000 -0.450000  0.350000    288.000000
  0.450000  0.450000  0.450000     96.000000
 -0.450000  0.450000  0.450000    288.000000
 
 Following cartesian coordinates:
            Coordinates               Weight
  0.010550  0.007460  0.018274     96.000000
  0.052752 -0.007460  0.018274    288.000000
  0.094954 -0.022381  0.018274    288.000000
  0.137156 -0.037301  0.018274    288.000000
  0.179358 -0.052222  0.018274    288.000000
 -0.200459  0.082063  0.018274    288.000000
 -0.158257  0.067143  0.018274    288.000000
 -0.116055  0.052222  0.018274    288.000000
 -0.073853  0.037301  0.018274    288.000000
 -0.031651  0.022381  0.018274    288.000000
  0.052752  0.037302  0.018274    288.000000
  0.094954  0.022381  0.018274    576.000000
  0.137156  0.007460  0.018274    576.000000
  0.179358 -0.007460  0.018274    576.000000
 -0.200459  0.126825  0.018274    576.000000
 -0.158257  0.111904  0.018274    576.000000
 -0.116055  0.096984  0.018274    576.000000
 -0.073853  0.082063  0.018274    576.000000
 -0.031651  0.067143  0.018274    576.000000
  0.094954  0.067143  0.018274    288.000000
  0.137156  0.052222  0.018274    576.000000
  0.179358  0.037302  0.018274    576.000000
 -0.200459  0.171587  0.018274    576.000000
 -0.158257  0.156666  0.018274    576.000000
 -0.116055  0.141746  0.018274    576.000000
 -0.073853  0.126825  0.018274    576.000000
 -0.031651  0.111904  0.018274    576.000000
  0.137156  0.096984  0.018274    288.000000
  0.179358  0.082063  0.018274    576.000000
 -0.200459  0.216349  0.018274    576.000000
 -0.158257  0.201428  0.018274    576.000000
 -0.116055  0.186507  0.018274    576.000000
 -0.073853  0.171587  0.018274    576.000000
 -0.031651  0.156666  0.018274    576.000000
  0.179358  0.126825  0.018274    288.000000
 -0.200459  0.261110  0.018274    576.000000
 -0.158257  0.246190  0.018274    576.000000
 -0.116055  0.231269  0.018274    576.000000
 -0.073853  0.216349  0.018274    576.000000
 -0.031651  0.201428  0.018274    576.000000
 -0.200459 -0.141746  0.018274    288.000000
 -0.158257 -0.156666  0.018274    576.000000
 -0.116055 -0.171587  0.018274    576.000000
 -0.073853 -0.186507  0.018274    576.000000
 -0.158257 -0.111905  0.018274    288.000000
 -0.116055 -0.126825  0.018274    576.000000
 -0.073853 -0.141746  0.018274    576.000000
 -0.116055 -0.082063  0.018274    288.000000
 -0.073853 -0.096984  0.018274    576.000000
 -0.073853 -0.052222  0.018274    288.000000
  0.031651  0.022381  0.054822     96.000000
  0.073853  0.007460  0.054822    288.000000
  0.116055 -0.007460  0.054822    288.000000
  0.158257 -0.022381  0.054822    288.000000
 -0.221560  0.111904  0.054822    288.000000
 -0.179358  0.096984  0.054822    288.000000
 -0.137156  0.082063  0.054822    288.000000
 -0.094954  0.067143  0.054822    288.000000
  0.073853  0.052222  0.054822    288.000000
  0.116055  0.037302  0.054822    576.000000
  0.158257  0.022381  0.054822    576.000000
 -0.221560  0.156666  0.054822    576.000000
 -0.179358  0.141746  0.054822    576.000000
 -0.137156  0.126825  0.054822    576.000000
 -0.094954  0.111904  0.054822    576.000000
  0.116055  0.082063  0.054822    288.000000
  0.158257  0.067143  0.054822    576.000000
 -0.221560  0.201428  0.054822    576.000000
 -0.179358  0.186507  0.054822    576.000000
 -0.137156  0.171587  0.054822    576.000000
 -0.094954  0.156666  0.054822    576.000000
  0.158257  0.111905  0.054822    288.000000
 -0.221560  0.246190  0.054822    576.000000
 -0.179358  0.231269  0.054822    576.000000
 -0.137156  0.216349  0.054822    576.000000
 -0.094954  0.201428  0.054822    576.000000
 -0.221560 -0.156666  0.054822    288.000000
 -0.179358 -0.171587  0.054822    576.000000
 -0.137156 -0.186507  0.054822    576.000000
 -0.179358 -0.126825  0.054822    288.000000
 -0.137156 -0.141746  0.054822    576.000000
 -0.137156 -0.096984  0.054822    288.000000
  0.052752  0.037302  0.091370     96.000000
  0.094954  0.022381  0.091370    288.000000
  0.137156  0.007460  0.091370    288.000000
 -0.242660  0.141746  0.091370    288.000000
 -0.200459  0.126825  0.091370    288.000000
 -0.158257  0.111904  0.091370    288.000000
  0.094954  0.067143  0.091370    288.000000
  0.137156  0.052222  0.091370    576.000000
 -0.242660  0.186507  0.091370    576.000000
 -0.200459  0.171587  0.091370    576.000000
 -0.158257  0.156666  0.091370    576.000000
  0.137156  0.096984  0.091370    288.000000
 -0.242660  0.231269  0.091370    576.000000
 -0.200459  0.216349  0.091370    576.000000
 -0.158257  0.201428  0.091370    576.000000
 -0.242660 -0.171587  0.091370    288.000000
 -0.200459 -0.186507  0.091370    576.000000
 -0.200459 -0.141746  0.091370    288.000000
  0.073853  0.052222  0.127917     96.000000
  0.116055  0.037302  0.127917    288.000000
 -0.263761  0.171587  0.127917    288.000000
 -0.221560  0.156666  0.127917    288.000000
  0.116055  0.082063  0.127917    288.000000
 -0.263761  0.216349  0.127917    576.000000
 -0.221560  0.201428  0.127917    576.000000
 -0.263761 -0.186508  0.127917    288.000000
  0.094954  0.067143  0.164465     96.000000
 -0.284862  0.201428  0.164465    288.000000
 
 TETIRR: Found   1959 inequivalent tetrahedra from    48000


--------------------------------------------------------------------------------------------------------




 Dimension of arrays:
   k-points           NKPTS =    110   k-points in BZ     NKDIM =    110   number of bands    NBANDS=      6
   number of dos      NEDOS =    301   number of ions     NIONS =      1
   non local maximal  LDIM  =      4   non local SUM 2l+1 LMDIM =      8
   total plane-waves  NPLWV =   8000
   max r-space proj   IRMAX =   4156   max aug-charges    IRDMAX=  18664
   dimension x,y,z NGX =    20 NGY =   20 NGZ =   20
   dimension x,y,z NGXF=    40 NGYF=   40 NGZF=   40
   support grid    NGXF=    40 NGYF=   40 NGZF=   40
   ions per type =               1
   NGX,Y,Z   is equivalent  to a cutoff of  12.15, 12.15, 12.15 a.u.
   NGXF,Y,Z  is equivalent  to a cutoff of  24.30, 24.30, 24.30 a.u.

 SYSTEM =  unknown system                          
 POSCAR =  Si1                                     

 Startparameter for this run:
   NWRITE =      2    write-flag & timer
   PREC   = accura    normal or accurate (medium, high low for compatibility)
   ISTART =      0    job   : 0-new  1-cont  2-samecut
   ICHARG =      1    charge: 1-file 2-atom 10-const
   ISPIN  =      2    spin polarized calculation?
   LNONCOLLINEAR =      F non collinear calculations
   LSORBIT =      F    spin-orbit coupling
   INIWAV =      1    electr: 0-lowe 1-rand  2-diag
   LASPH  =      F    aspherical Exc in radial PAW
   METAGGA=      F    non-selfconsistent MetaGGA calc.

 Electronic Relaxation 1
   ENCUT  =  520.0 eV  38.22 Ry    6.18 a.u.   5.09  5.09  5.09*2*pi/ulx,y,z
   ENINI  =  520.0     initial cutoff
   ENAUG  =  322.1 eV  augmentation charge cutoff
   NELM   =    100;   NELMIN=  2; NELMDL=  0     # of ELM steps 
   EDIFF  = 0.5E-04   stopping-criterion for ELM
   LREAL  =      T    real-space projection
   NLSPLINE    = F    spline interpolate recip. space projectors
   LCOMPAT=      F    compatible to vasp.4.4
   GGA_COMPAT  = T    GGA compatible to vasp.4.4-vasp.4.6
   LMAXPAW     = -100 max onsite density
   LMAXMIX     =    2 max onsite mixed and CHGCAR
   VOSKOWN=      0    Vosko Wilk Nusair interpolation
   ROPT   =   -0.00025
 Ionic relaxation
   EDIFFG = 0.5E-03   stopping-criterion for IOM
   NSW    =     99    number of steps for IOM
   NBLOCK =      1;   KBLOCK =     99    inner block; outer block 
   IBRION =      2    ionic relax: 0-MD 1-quasi-New 2-CG
   NFREE  =      1    steps in history (QN), initial steepest desc. (CG)
   ISIF   =      3    stress and relaxation
   IWAVPR =     11    prediction:  0-non 1-charg 2-wave 3-comb
   ISYM   =      2    0-nonsym 1-usesym 2-fastsym
   LCORR  =      T    Harris-Foulkes like correction to forces

   POTIM  = 0.5000    time-step for ionic-motion
   TEIN   =    0.0    initial temperature
   TEBEG  =    0.0;   TEEND  =   0.0 temperature during run
   SMASS  =  -3.00    Nose mass-parameter (am)
   estimated Nose-frequenzy (Omega)   =  0.10E-29 period in steps =****** mass=  -0.171E-27a.u.
   SCALEE = 1.0000    scale energy and forces
   NPACO  =    256;   APACO  = 16.0  distance and # of slots for P.C.
   PSTRESS=    0.0 pullay stress

  Mass of Ions in am
   POMASS =  28.09
  Ionic Valenz
   ZVAL   =   4.00
  Atomic Wigner-Seitz radii
   RWIGS  =  -1.00
  virtual crystal weights 
   VCA    =   1.00
   NELECT =       4.0000    total number of electrons
   NUPDOWN=      -1.0000    fix difference up-down

 DOS related values:
   EMIN   =  10.00;   EMAX   =-10.00  energy-range for DOS
   EFERMI =   0.00
   ISMEAR =    -5;   SIGMA  =   0.05  broadening in eV -4-tet -1-fermi 0-gaus

 Electronic relaxation 2 (details)
   IALGO  =     68    algorithm
   LDIAG  =      T    sub-space diagonalisation (order eigenvalues)
   LSUBROT=      F    optimize rotation matrix (better conditioning)
   TURBO    =      0    0=normal 1=particle mesh
   IRESTART =      0    0=no restart 2=restart with 2 vectors
   NREBOOT  =      0    no. of reboots
   NMIN     =      0    reboot dimension
   EREF     =   0.00    reference energy to select bands
   IMIX   =      4    mixing-type and parameters
     AMIX     =   0.40;   BMIX     =  1.00
     AMIX_MAG =   1.60;   BMIX_MAG =  1.00
     AMIN     =   0.10
     WC   =   100.;   INIMIX=   1;  MIXPRE=   1;  MAXMIX= -45

 Intra band minimization:
   WEIMIN = 0.0010     energy-eigenvalue tresh-hold
   EBREAK =  0.21E-05  absolut break condition
   DEPER  =   0.30     relativ break condition  

   TIME   =   0.40     timestep for ELM

  volume/ion in A,a.u.               =      14.48        97.75
  Fermi-wavevector in a.u.,A,eV,Ry     =   1.066093  2.014623 15.463754  1.136554
  Thomas-Fermi vector in A             =   2.201666
 
 Write flags
   LWAVE        =      F    write WAVECAR
   LDOWNSAMPLE  =      F    k-point downsampling of WAVECAR
   LCHARG       =      T    write CHGCAR
   LVTOT        =      F    write LOCPOT, total local potential
   LVHAR        =      F    write LOCPOT, Hartree potential only
   LELF         =      F    write electronic localiz. function (ELF)
   LORBIT       =     11    0 simple, 1 ext, 2 COOP (PROOUT), +10 PAW based schemes


 Dipole corrections
   LMONO  =      F    monopole corrections only (constant potential shift)
   LDIPOL =      F    correct potential (dipole corrections)
   IDIPOL =      0    1-x, 2-y, 3-z, 4-all directions 
   EPSILON=  1.0000000 bulk dielectric constant

 Exchange correlation treatment:
   GGA     =    --    GGA type
   LEXCH   =     8    internal setting for exchange type
   VOSKOWN=      0    Vosko Wilk Nusair interpolation
   LHFCALC =     F    Hartree Fock is set to
   LHFONE  =     F    Hartree Fock one center treatment
   AEXX    =    0.0000 exact exchange contribution

 Linear response parameters
   LEPSILON=     F    determine dielectric tensor
   LRPA    =     F    only Hartree local field effects (RPA)
   LNABLA  =     F    use nabla operator in PAW spheres
   LVEL    =     F    velocity operator in full k-point grid
   LINTERFAST=   F  fast interpolation
   KINTER  =     0    interpolate to denser k-point grid
   CSHIFT  =0.1000    complex shift for real part using Kramers Kronig
   OMEGAMAX=  -1.0    maximum frequency
   DEG_THRESHOLD= 0.2000000E-02 threshold for treating states as degnerate
   RTIME   =   -0.100 relaxation time in fs
  (WPLASMAI=    0.000 imaginary part of plasma frequency in eV, 0.658/RTIME)
   DFIELD  = 0.0000000 0.0000000 0.0000000 field for delta impulse in time
 
 Orbital magnetization related:
   ORBITALMAG=     F  switch on orbital magnetization
   LCHIMAG   =     F  perturbation theory with respect to B field
   DQ        =  0.001000  dq finite difference perturbation B field
   LLRAUG    =     F  two centre corrections for induced B field



--------------------------------------------------------------------------------------------------------


 conjugate gradient relaxation of ions
 charge density and potential will be updated during run
 spin polarized calculation
 RMM-DIIS sequential band-by-band and
  variant of blocked Davidson during initial phase
 perform sub-space diagonalisation
    before iterative eigenvector-optimisation
 modified Broyden-mixing scheme, WC =      100.0
 initial mixing is a Kerker type mixing with AMIX =  0.4000 and BMIX =      1.0000
 Hartree-type preconditioning will be used
 using additional bands            4
 real space projection scheme for non local part
 use partial core corrections
 calculate Harris-corrections to forces 
   (improved forces if not selfconsistent)
 use gradient corrections 
 use of overlap-Matrix (Vanderbilt PP)
 Fermi weights with tetrahedron method with Bloechl corrections


--------------------------------------------------------------------------------------------------------


  energy-cutoff  :      520.00
  volume of cell :       14.48
      direct lattice vectors                 reciprocal lattice vectors
     2.369566000  0.000000000  1.368069000     0.422018209 -0.149205922  0.000000000
     0.789855000  2.234048000  1.368069000     0.000000000  0.447617956  0.000000000
     0.000000000  0.000000000  2.736139000    -0.211009028 -0.149205962  0.365478508

  length of vectors
     2.736138852  2.736138552  2.736139000     0.447617891  0.447617956  0.447617883


 
 k-points in units of 2pi/SCALE and weight: pymatgen 4.7.6+ generated KPOINTS with g
   0.01055046  0.00746030  0.01827393       0.002
   0.05275228 -0.00746029  0.01827393       0.006
   0.09495410 -0.02238088  0.01827393       0.006
   0.13715592 -0.03730147  0.01827393       0.006
   0.17935774 -0.05222207  0.01827393       0.006
  -0.20045865  0.08206326  0.01827393       0.006
  -0.15825682  0.06714267  0.01827393       0.006
  -0.11605500  0.05222208  0.01827393       0.006
  -0.07385318  0.03730149  0.01827393       0.006
  -0.03165136  0.02238090  0.01827393       0.006
   0.05275228  0.03730151  0.01827393       0.006
   0.09495410  0.02238091  0.01827393       0.012
   0.13715592  0.00746032  0.01827393       0.012
   0.17935774 -0.00746027  0.01827393       0.012
  -0.20045865  0.12682506  0.01827393       0.012
  -0.15825682  0.11190447  0.01827393       0.012
  -0.11605500  0.09698388  0.01827393       0.012
  -0.07385318  0.08206328  0.01827393       0.012
  -0.03165136  0.06714269  0.01827393       0.012
   0.09495410  0.06714271  0.01827393       0.006
   0.13715592  0.05222212  0.01827393       0.012
   0.17935774  0.03730153  0.01827393       0.012
  -0.20045865  0.17158686  0.01827393       0.012
  -0.15825682  0.15666626  0.01827393       0.012
  -0.11605500  0.14174567  0.01827393       0.012
  -0.07385318  0.12682508  0.01827393       0.012
  -0.03165136  0.11190449  0.01827393       0.012
   0.13715592  0.09698391  0.01827393       0.006
   0.17935774  0.08206332  0.01827393       0.012
  -0.20045865  0.21634865  0.01827393       0.012
  -0.15825682  0.20142806  0.01827393       0.012
  -0.11605500  0.18650747  0.01827393       0.012
  -0.07385318  0.17158687  0.01827393       0.012
  -0.03165136  0.15666628  0.01827393       0.012
   0.17935774  0.12682512  0.01827393       0.006
  -0.20045865  0.26111045  0.01827393       0.012
  -0.15825682  0.24618986  0.01827393       0.012
  -0.11605500  0.23126926  0.01827393       0.012
  -0.07385318  0.21634867  0.01827393       0.012
  -0.03165136  0.20142808  0.01827393       0.012
  -0.20045865 -0.14174571  0.01827393       0.006
  -0.15825682 -0.15666631  0.01827393       0.012
  -0.11605500 -0.17158690  0.01827393       0.012
  -0.07385318 -0.18650749  0.01827393       0.012
  -0.15825682 -0.11190451  0.01827393       0.006
  -0.11605500 -0.12682510  0.01827393       0.012
  -0.07385318 -0.14174569  0.01827393       0.012
  -0.11605500 -0.08206331  0.01827393       0.006
  -0.07385318 -0.09698390  0.01827393       0.012
  -0.07385318 -0.05222210  0.01827393       0.006
   0.03165138  0.02238091  0.05482178       0.002
   0.07385320  0.00746032  0.05482178       0.006
   0.11605502 -0.00746027  0.05482178       0.006
   0.15825684 -0.02238087  0.05482178       0.006
  -0.22155955  0.11190446  0.05482178       0.006
  -0.17935773  0.09698387  0.05482178       0.006
  -0.13715591  0.08206328  0.05482178       0.006
  -0.09495409  0.06714269  0.05482178       0.006
   0.07385320  0.05222211  0.05482178       0.006
   0.11605502  0.03730152  0.05482178       0.012
   0.15825684  0.02238093  0.05482178       0.012
  -0.22155955  0.15666626  0.05482178       0.012
  -0.17935773  0.14174567  0.05482178       0.012
  -0.13715591  0.12682508  0.05482178       0.012
  -0.09495409  0.11190448  0.05482178       0.012
   0.11605502  0.08206332  0.05482178       0.006
   0.15825684  0.06714273  0.05482178       0.012
  -0.22155955  0.20142806  0.05482178       0.012
  -0.17935773  0.18650746  0.05482178       0.012
  -0.13715591  0.17158687  0.05482178       0.012
  -0.09495409  0.15666628  0.05482178       0.012
   0.15825684  0.11190452  0.05482178       0.006
  -0.22155955  0.24618985  0.05482178       0.012
  -0.17935773  0.23126926  0.05482178       0.012
  -0.13715591  0.21634867  0.05482178       0.012
  -0.09495409  0.20142807  0.05482178       0.012
  -0.22155955 -0.15666631  0.05482178       0.006
  -0.17935773 -0.17158690  0.05482178       0.012
  -0.13715591 -0.18650749  0.05482178       0.012
  -0.17935773 -0.12682511  0.05482178       0.006
  -0.13715591 -0.14174570  0.05482178       0.012
  -0.13715591 -0.09698390  0.05482178       0.006
   0.05275230  0.03730152  0.09136963       0.002
   0.09495412  0.02238093  0.09136963       0.006
   0.13715594  0.00746033  0.09136963       0.006
  -0.24266045  0.14174566  0.09136963       0.006
  -0.20045863  0.12682507  0.09136963       0.006
  -0.15825681  0.11190448  0.09136963       0.006
   0.09495412  0.06714272  0.09136963       0.006
   0.13715594  0.05222213  0.09136963       0.012
  -0.24266045  0.18650746  0.09136963       0.012
  -0.20045863  0.17158687  0.09136963       0.012
  -0.15825681  0.15666627  0.09136963       0.012
   0.13715594  0.09698392  0.09136963       0.006
  -0.24266045  0.23126925  0.09136963       0.012
  -0.20045863  0.21634866  0.09136963       0.012
  -0.15825681  0.20142807  0.09136963       0.012
  -0.24266045 -0.17158691  0.09136963       0.006
  -0.20045863 -0.18650750  0.09136963       0.012
  -0.20045863 -0.14174570  0.09136963       0.006
   0.07385321  0.05222213  0.12791748       0.002
   0.11605503  0.03730153  0.12791748       0.006
  -0.26376135  0.17158686  0.12791748       0.006
  -0.22155953  0.15666627  0.12791748       0.006
   0.11605503  0.08206333  0.12791748       0.006
  -0.26376135  0.21634866  0.12791748       0.012
  -0.22155953  0.20142807  0.12791748       0.012
  -0.26376135 -0.18650750  0.12791748       0.006
   0.09495413  0.06714273  0.16446533       0.002
  -0.28486226  0.20142806  0.16446533       0.006
 
 k-points in reciprocal lattice and weights: pymatgen 4.7.6+ generated KPOINTS with g
   0.05000000  0.05000000  0.05000000       0.002
   0.15000000  0.05000000  0.05000000       0.006
   0.25000000  0.05000000  0.05000000       0.006
   0.35000000  0.05000000  0.05000000       0.006
   0.45000000  0.05000000  0.05000000       0.006
  -0.45000000  0.05000000  0.05000000       0.006
  -0.35000000  0.05000000  0.05000000       0.006
  -0.25000000  0.05000000  0.05000000       0.006
  -0.15000000  0.05000000  0.05000000       0.006
  -0.05000000  0.05000000  0.05000000       0.006
   0.15000000  0.15000000  0.05000000       0.006
   0.25000000  0.15000000  0.05000000       0.012
   0.35000000  0.15000000  0.05000000       0.012
   0.45000000  0.15000000  0.05000000       0.012
  -0.45000000  0.15000000  0.05000000       0.012
  -0.35000000  0.15000000  0.05000000       0.012
  -0.25000000  0.15000000  0.05000000       0.012
  -0.15000000  0.15000000  0.05000000       0.012
  -0.05000000  0.15000000  0.05000000       0.012
   0.25000000  0.25000000  0.05000000       0.006
   0.35000000  0.25000000  0.05000000       0.012
   0.45000000  0.25000000  0.05000000       0.012
  -0.45000000  0.25000000  0.05000000       0.012
  -0.35000000  0.25000000  0.05000000       0.012
  -0.25000000  0.25000000  0.05000000       0.012
  -0.15000000  0.25000000  0.05000000       0.012
  -0.05000000  0.25000000  0.05000000       0.012
   0.35000000  0.35000000  0.05000000       0.006
   0.45000000  0.35000000  0.05000000       0.012
  -0.45000000  0.35000000  0.05000000       0.012
  -0.35000000  0.35000000  0.05000000       0.012
  -0.25000000  0.35000000  0.05000000       0.012
  -0.15000000  0.35000000  0.05000000       0.012
  -0.05000000  0.35000000  0.05000000       0.012
   0.45000000  0.45000000  0.05000000       0.006
  -0.45000000  0.45000000  0.05000000       0.012
  -0.35000000  0.45000000  0.05000000       0.012
  -0.25000000  0.45000000  0.05000000       0.012
  -0.15000000  0.45000000  0.05000000       0.012
  -0.05000000  0.45000000  0.05000000       0.012
  -0.45000000 -0.45000000  0.05000000       0.006
  -0.35000000 -0.45000000  0.05000000       0.012
  -0.25000000 -0.45000000  0.05000000       0.012
  -0.15000000 -0.45000000  0.05000000       0.012
  -0.35000000 -0.35000000  0.05000000       0.006
  -0.25000000 -0.35000000  0.05000000       0.012
  -0.15000000 -0.35000000  0.05000000       0.012
  -0.25000000 -0.25000000  0.05000000       0.006
  -0.15000000 -0.25000000  0.05000000       0.012
  -0.15000000 -0.15000000  0.05000000       0.006
   0.15000000  0.15000000  0.15000000       0.002
   0.25000000  0.15000000  0.15000000       0.006
   0.35000000  0.15000000  0.15000000       0.006
   0.45000000  0.15000000  0.15000000       0.006
  -0.45000000  0.15000000  0.15000000       0.006
  -0.35000000  0.15000000  0.15000000       0.006
  -0.25000000  0.15000000  0.15000000       0.006
  -0.15000000  0.15000000  0.15000000       0.006
   0.25000000  0.25000000  0.15000000       0.006
   0.35000000  0.25000000  0.15000000       0.012
   0.45000000  0.25000000  0.15000000       0.012
  -0.45000000  0.25000000  0.15000000       0.012
  -0.35000000  0.25000000  0.15000000       0.012
  -0.25000000  0.25000000  0.15000000       0.012
  -0.15000000  0.25000000  0.15000000       0.012
   0.35000000  0.35000000  0.15000000       0.006
   0.45000000  0.35000000  0.15000000       0.012
  -0.45000000  0.35000000  0.15000000       0.012
  -0.35000000  0.35000000  0.15000000       0.012
  -0.25000000  0.35000000  0.15000000       0.012
  -0.15000000  0.35000000  0.15000000       0.012
   0.45000000  0.45000000  0.15000000       0.006
  -0.45000000  0.45000000  0.15000000       0.012
  -0.35000000  0.45000000  0.15000000       0.012
  -0.25000000  0.45000000  0.15000000       0.012
  -0.15000000  0.45000000  0.15000000       0.012
  -0.45000000 -0.45000000  0.15000000       0.006
  -0.35000000 -0.45000000  0.15000000       0.012
  -0.25000000 -0.45000000  0.15000000       0.012
  -0.35000000 -0.35000000  0.15000000       0.006
  -0.25000000 -0.35000000  0.15000000       0.012
  -0.25000000 -0.25000000  0.15000000       0.006
   0.25000000  0.25000000  0.25000000       0.002
   0.35000000  0.25000000  0.25000000       0.006
   0.45000000  0.25000000  0.25000000       0.006
  -0.45000000  0.25000000  0.25000000       0.006
  -0.35000000  0.25000000  0.25000000       0.006
  -0.25000000  0.25000000  0.25000000       0.006
   0.35000000  0.35000000  0.25000000       0.006
   0.45000000  0.35000000  0.25000000       0.012
  -0.45000000  0.35000000  0.25000000       0.012
  -0.35000000  0.35000000  0.25000000       0.012
  -0.25000000  0.35000000  0.25000000       0.012
   0.45000000  0.45000000  0.25000000       0.006
  -0.45000000  0.45000000  0.25000000       0.012
  -0.35000000  0.45000000  0.25000000       0.012
  -0.25000000  0.45000000  0.25000000       0.012
  -0.45000000 -0.45000000  0.25000000       0.006
  -0.35000000 -0.45000000  0.25000000       0.012
  -0.35000000 -0.35000000  0.25000000       0.006
   0.35000000  0.35000000  0.35000000       0.002
   0.45000000  0.35000000  0.35000000       0.006
  -0.45000000  0.35000000  0.35000000       0.006
  -0.35000000  0.35000000  0.35000000       0.006
   0.45000000  0.45000000  0.35000000       0.006
  -0.45000000  0.45000000  0.35000000       0.012
  -0.35000000  0.45000000  0.35000000       0.012
  -0.45000000 -0.45000000  0.35000000       0.006
   0.45000000  0.45000000  0.45000000       0.002
  -0.45000000  0.45000000  0.45000000       0.006
 
 position of ions in fractional coordinates (direct lattice) 
   0.00000000  0.00000000  0.00000000
 
 position of ions in cartesian coordinates  (Angst):
   0.00000000  0.00000000  0.00000000
 


--------------------------------------------------------------------------------------------------------


 k-point  1 :   0.0500 0.0500 0.0500  plane waves:     384
 k-point  2 :   0.1500 0.0500 0.0500  plane waves:     382
 k-point  3 :   0.2500 0.0500 0.0500  plane waves:     384
 k-point  4 :   0.3500 0.0500 0.0500  plane waves:     386
 k-point  5 :   0.4500 0.0500 0.0500  plane waves:     390
 k-point  6 :  -0.4500 0.0500 0.0500  plane waves:     391
 k-point  7 :  -0.3500 0.0500 0.0500  plane waves:     391
 k-point  8 :  -0.2500 0.0500 0.0500  plane waves:     386
 k-point  9 :  -0.1500 0.0500 0.0500  plane waves:     378
 k-point 10 :  -0.0500 0.0500 0.0500  plane waves:     380
 k-point 11 :   0.1500 0.1500 0.0500  plane waves:     380
 k-point 12 :   0.2500 0.1500 0.0500  plane waves:     383
 k-point 13 :   0.3500 0.1500 0.0500  plane waves:     386
 k-point 14 :   0.4500 0.1500 0.0500  plane waves:     387
 k-point 15 :  -0.4500 0.1500 0.0500  plane waves:     390
 k-point 16 :  -0.3500 0.1500 0.0500  plane waves:     390
 k-point 17 :  -0.2500 0.1500 0.0500  plane waves:     391
 k-point 18 :  -0.1500 0.1500 0.0500  plane waves:     381
 k-point 19 :  -0.0500 0.1500 0.0500  plane waves:     378
 k-point 20 :   0.2500 0.2500 0.0500  plane waves:     383
 k-point 21 :   0.3500 0.2500 0.0500  plane waves:     390
 k-point 22 :   0.4500 0.2500 0.0500  plane waves:     391
 k-point 23 :  -0.4500 0.2500 0.0500  plane waves:     391
 k-point 24 :  -0.3500 0.2500 0.0500  plane waves:     392
 k-point 25 :  -0.2500 0.2500 0.0500  plane waves:     391
 k-point 26 :  -0.1500 0.2500 0.0500  plane waves:     388
 k-point 27 :  -0.0500 0.2500 0.0500  plane waves:     380
 k-point 28 :   0.3500 0.3500 0.0500  plane waves:     388
 k-point 29 :   0.4500 0.3500 0.0500  plane waves:     391
 k-point 30 :  -0.4500 0.3500 0.0500  plane waves:     393
 k-point 31 :  -0.3500 0.3500 0.0500  plane waves:     391
 k-point 32 :  -0.2500 0.3500 0.0500  plane waves:     394
 k-point 33 :  -0.1500 0.3500 0.0500  plane waves:     390
 k-point 34 :  -0.0500 0.3500 0.0500  plane waves:     388
 k-point 35 :   0.4500 0.4500 0.0500  plane waves:     393
 k-point 36 :  -0.4500 0.4500 0.0500  plane waves:     391
 k-point 37 :  -0.3500 0.4500 0.0500  plane waves:     391
 k-point 38 :  -0.2500 0.4500 0.0500  plane waves:     391
 k-point 39 :  -0.1500 0.4500 0.0500  plane waves:     391
 k-point 40 :  -0.0500 0.4500 0.0500  plane waves:     391
 k-point 41 :  -0.4500-0.4500 0.0500  plane waves:     388
 k-point 42 :  -0.3500-0.4500 0.0500  plane waves:     395
 k-point 43 :  -0.2500-0.4500 0.0500  plane waves:     395
 k-point 44 :  -0.1500-0.4500 0.0500  plane waves:     388
 k-point 45 :  -0.3500-0.3500 0.0500  plane waves:     391
 k-point 46 :  -0.2500-0.3500 0.0500  plane waves:     394
 k-point 47 :  -0.1500-0.3500 0.0500  plane waves:     389
 k-point 48 :  -0.2500-0.2500 0.0500  plane waves:     388
 k-point 49 :  -0.1500-0.2500 0.0500  plane waves:     384
 k-point 50 :  -0.1500-0.1500 0.0500  plane waves:     382
 k-point 51 :   0.1500 0.1500 0.1500  plane waves:     381
 k-point 52 :   0.2500 0.1500 0.1500  plane waves:     383
 k-point 53 :   0.3500 0.1500 0.1500  plane waves:     385
 k-point 54 :   0.4500 0.1500 0.1500  plane waves:     396
 k-point 55 :  -0.4500 0.1500 0.1500  plane waves:     391
 k-point 56 :  -0.3500 0.1500 0.1500  plane waves:     389
 k-point 57 :  -0.2500 0.1500 0.1500  plane waves:     389
 k-point 58 :  -0.1500 0.1500 0.1500  plane waves:     386
 k-point 59 :   0.2500 0.2500 0.1500  plane waves:     380
 k-point 60 :   0.3500 0.2500 0.1500  plane waves:     385
 k-point 61 :   0.4500 0.2500 0.1500  plane waves:     393
 k-point 62 :  -0.4500 0.2500 0.1500  plane waves:     391
 k-point 63 :  -0.3500 0.2500 0.1500  plane waves:     389
 k-point 64 :  -0.2500 0.2500 0.1500  plane waves:     393
 k-point 65 :  -0.1500 0.2500 0.1500  plane waves:     392
 k-point 66 :   0.3500 0.3500 0.1500  plane waves:     391
 k-point 67 :   0.4500 0.3500 0.1500  plane waves:     395
 k-point 68 :  -0.4500 0.3500 0.1500  plane waves:     396
 k-point 69 :  -0.3500 0.3500 0.1500  plane waves:     393
 k-point 70 :  -0.2500 0.3500 0.1500  plane waves:     393
 k-point 71 :  -0.1500 0.3500 0.1500  plane waves:     399
 k-point 72 :   0.4500 0.4500 0.1500  plane waves:     390
 k-point 73 :  -0.4500 0.4500 0.1500  plane waves:     397
 k-point 74 :  -0.3500 0.4500 0.1500  plane waves:     392
 k-point 75 :  -0.2500 0.4500 0.1500  plane waves:     392
 k-point 76 :  -0.1500 0.4500 0.1500  plane waves:     391
 k-point 77 :  -0.4500-0.4500 0.1500  plane waves:     390
 k-point 78 :  -0.3500-0.4500 0.1500  plane waves:     391
 k-point 79 :  -0.2500-0.4500 0.1500  plane waves:     394
 k-point 80 :  -0.3500-0.3500 0.1500  plane waves:     392
 k-point 81 :  -0.2500-0.3500 0.1500  plane waves:     395
 k-point 82 :  -0.2500-0.2500 0.1500  plane waves:     390
 k-point 83 :   0.2500 0.2500 0.2500  plane waves:     386
 k-point 84 :   0.3500 0.2500 0.2500  plane waves:     384
 k-point 85 :   0.4500 0.2500 0.2500  plane waves:     393
 k-point 86 :  -0.4500 0.2500 0.2500  plane waves:     393
 k-point 87 :  -0.3500 0.2500 0.2500  plane waves:     393
 k-point 88 :  -0.2500 0.2500 0.2500  plane waves:     395
 k-point 89 :   0.3500 0.3500 0.2500  plane waves:     387
 k-point 90 :   0.4500 0.3500 0.2500  plane waves:     392
 k-point 91 :  -0.4500 0.3500 0.2500  plane waves:     394
 k-point 92 :  -0.3500 0.3500 0.2500  plane waves:     391
 k-point 93 :  -0.2500 0.3500 0.2500  plane waves:     392
 k-point 94 :   0.4500 0.4500 0.2500  plane waves:     393
 k-point 95 :  -0.4500 0.4500 0.2500  plane waves:     395
 k-point 96 :  -0.3500 0.4500 0.2500  plane waves:     394
 k-point 97 :  -0.2500 0.4500 0.2500  plane waves:     390
 k-point 98 :  -0.4500-0.4500 0.2500  plane waves:     389
 k-point 99 :  -0.3500-0.4500 0.2500  plane waves:     388
 k-point ** :  -0.3500-0.3500 0.2500  plane waves:     393
 k-point ** :   0.3500 0.3500 0.3500  plane waves:     395
 k-point ** :   0.4500 0.3500 0.3500  plane waves:     390
 k-point ** :  -0.4500 0.3500 0.3500  plane waves:     392
 k-point ** :  -0.3500 0.3500 0.3500  plane waves:     394
 k-point ** :   0.4500 0.4500 0.3500  plane waves:     389
 k-point ** :  -0.4500 0.4500 0.3500  plane waves:     389
 k-point ** :  -0.3500 0.4500 0.3500  plane waves:     392
 k-point ** :  -0.4500-0.4500 0.3500  plane waves:     393
 k-point ** :   0.4500 0.4500 0.4500  plane waves:     392
 k-point ** :  -0.4500 0.4500 0.4500  plane waves:     391

 maximum and minimum number of plane-waves per node :       399      378

 maximum number of plane-waves:       399
 maximum index in each direction: 
   IXMAX=    5   IYMAX=    5   IZMAX=    5
   IXMIN=   -5   IYMIN=   -5   IZMIN=   -5


 serial   3D FFT for wavefunctions
 parallel 3D FFT for charge:
    minimum data exchange during FFTs selected (reduces bandwidth)


 total amount of memory used by VASP MPI-rank0    38869. kBytes
=======================================================================

   base      :      30000. kBytes
   nonlr-proj:        351. kBytes
   fftplans  :       1158. kBytes
   grid      :       3046. kBytes
   one-center:          6. kBytes
   wavefun   :       4308. kBytes
 
     INWAV:  cpu time    0.0000: real time    0.0002
 Broyden mixing: mesh for mixing (old mesh)
   NGX = 11   NGY = 11   NGZ = 11
  (NGX  = 40   NGY  = 40   NGZ  = 40)
  gives a total of   1331 points

 initial charge density was supplied:
 number of electron       4.0000000 magnetization       0.0000117
 keeping initial charge density in first step


--------------------------------------------------------------------------------------------------------


 Maximum index for non-local projection operator         3997
 Maximum index for augmentation-charges         8993 (set IRDMAX)


--------------------------------------------------------------------------------------------------------


 First call to EWALD:  gamma=   0.727
 Maximum number of real-space cells 3x 3x 3
 Maximum number of reciprocal cells 3x 3x 3

    FEWALD:  cpu time    0.0000: real time    0.0017


--------------------------------------- Iteration      1(   1)  ---------------------------------------


    POTLOK:  cpu time    0.0240: real time    0.0316
    SETDIJ:  cpu time    0.0080: real time    0.0045
     EDDAV:  cpu time    0.6880: real time    0.6924
 BZINTS: Fermi energy: 12.710538;  4.000000 electrons
         Band energy:  21.544353;  BLOECHL correction: -0.278007
       DOS:  cpu time    0.0320: real time    0.0327
    --------------------------------------------
      LOOP:  cpu time    0.7520: real time    0.7615

 eigenvalue-minimisations  :  2796
 total energy-change (2. order) :-0.1181811E+01  (-0.1513485E+03)
 number of electron       4.0000000 magnetization       0.0000117
 augmentation part        4.0000000 magnetization       0.0000117

 Free energy of the ion-electron system (eV)
  ---------------------------------------------------
  alpha Z        PSCENC =         2.32409760
  Ewald energy   TEWEN  =      -136.49576690
  -Hartree energ DENC   =        -0.45106717
  -exchange      EXHF   =         0.00000000
  -V(xc)+E(xc)   XCENC  =        -8.75580413
  PAW double counting   =        33.77970331      -16.19367807
  entropy T*S    EENTRO =         0.00000000
  eigenvalues    EBANDS =        21.54435317
  atomic energy  EATOM  =       103.06635137
  Solvation  Ediel_sol  =         0.00000000
  ---------------------------------------------------
  free energy    TOTEN  =        -1.18181083 eV

  energy without entropy =       -1.18181083  energy(sigma->0) =       -1.18181083


--------------------------------------------------------------------------------------------------------




--------------------------------------- Iteration      1(   2)  ---------------------------------------


     EDDAV:  cpu time    0.8600: real time    0.8619
 BZINTS: Fermi energy: 10.248634;  4.000000 electrons
         Band energy:  17.873248;  BLOECHL correction: -0.121709
       DOS:  cpu time    0.0280: real time    0.0298
    --------------------------------------------
      LOOP:  cpu time    0.8880: real time    0.8916

 eigenvalue-minimisations  :  3690
 total energy-change (2. order) :-0.3671105E+01  (-0.3517756E+01)
 number of electron       4.0000000 magnetization       0.0000117
 augmentation part        4.0000000 magnetization       0.0000117

 Free energy of the ion-electron system (eV)
  ---------------------------------------------------
  alpha Z        PSCENC =         2.32409760
  Ewald energy   TEWEN  =      -136.49576690
  -Hartree energ DENC   =        -0.45106717
  -exchange      EXHF   =         0.00000000
  -V(xc)+E(xc)   XCENC  =        -8.75580413
  PAW double counting   =        33.77970331      -16.19367807
  entropy T*S    EENTRO =         0.00000000
  eigenvalues    EBANDS =        17.87324820
  atomic energy  EATOM  =       103.06635137
  Solvation  Ediel_sol  =         0.00000000
  ---------------------------------------------------
  free energy    TOTEN  =        -4.85291579 eV

  energy without entropy =       -4.85291579  energy(sigma->0) =       -4.85291579


--------------------------------------------------------------------------------------------------------




--------------------------------------- Iteration      1(   3)  ---------------------------------------


     EDDAV:  cpu time    0.7960: real time    0.7980
 BZINTS: Fermi energy: 10.225042;  4.000000 electrons
         Band energy:  17.837612;  BLOECHL correction: -0.121194
       DOS:  cpu time    0.0280: real time    0.0295
    --------------------------------------------
      LOOP:  cpu time    0.8280: real time    0.8274

 eigenvalue-minimisations  :  3348
 total energy-change (2. order) :-0.3563658E-01  (-0.3548928E-01)
 number of electron       4.0000000 magnetization       0.0000117
 augmentation part        4.0000000 magnetization       0.0000117

 Free energy of the ion-electron system (eV)
  ---------------------------------------------------
  alpha Z        PSCENC =         2.32409760
  Ewald energy   TEWEN  =      -136.49576690
  -Hartree energ DENC   =        -0.45106717
  -exchange      EXHF   =         0.00000000
  -V(xc)+E(xc)   XCENC  =        -8.75580413
  PAW double counting   =        33.77970331      -16.19367807
  entropy T*S    EENTRO =         0.00000000
  eigenvalues    EBANDS =        17.83761162
  atomic energy  EATOM  =       103.06635137
  Solvation  Ediel_sol  =         0.00000000
  ---------------------------------------------------
  free energy    TOTEN  =        -4.88855237 eV

  energy without entropy =       -4.88855237  energy(sigma->0) =       -4.88855237


--------------------------------------------------------------------------------------------------------




--------------------------------------- Iteration      1(   4)  ---------------------------------------


     EDDAV:  cpu time    0.8760: real time    0.8762
 BZINTS: Fermi energy: 10.224993;  4.000000 electrons
         Band energy:  17.837555;  BLOECHL correction: -0.121193
       DOS:  cpu time    0.0280: real time    0.0302
    --------------------------------------------
      LOOP:  cpu time    0.9000: real time    0.9064

 eigenvalue-minimisations  :  3762
 total energy-change (2. order) :-0.5700002E-04  (-0.5692653E-04)
 number of electron       4.0000000 magnetization       0.0000117
 augmentation part        4.0000000 magnetization       0.0000117

 Free energy of the ion-electron system (eV)
  ---------------------------------------------------
  alpha Z        PSCENC =         2.32409760
  Ewald energy   TEWEN  =      -136.49576690
  -Hartree energ DENC   =        -0.45106717
  -exchange      EXHF   =         0.00000000
  -V(xc)+E(xc)   XCENC  =        -8.75580413
  PAW double counting   =        33.77970331      -16.19367807
  entropy T*S    EENTRO =         0.00000000
  eigenvalues    EBANDS =        17.83755462
  atomic energy  EATOM  =       103.06635137
  Solvation  Ediel_sol  =         0.00000000
  ---------------------------------------------------
  free energy    TOTEN  =        -4.88860937 eV

  energy without entropy =       -4.88860937  energy(sigma->0) =       -4.88860937


--------------------------------------------------------------------------------------------------------




--------------------------------------- Iteration      1(   5)  ---------------------------------------


     EDDAV:  cpu time    0.8040: real time    0.8040
 BZINTS: Fermi energy: 10.224993;  4.000000 electrons
         Band energy:  17.837555;  BLOECHL correction: -0.121193
       DOS:  cpu time    0.0280: real time    0.0294
    CHARGE:  cpu time    0.0360: real time    0.0347
    MIXING:  cpu time    0.0000: real time    0.0006
    --------------------------------------------
      LOOP:  cpu time    0.8680: real time    0.8686

 eigenvalue-minimisations  :  3384
 total energy-change (2. order) :-0.5485465E-07  (-0.5665003E-07)
 number of electron       4.0000000 magnetization      -0.0000038
 augmentation part       -0.2471175 magnetization      -0.0000010

 Broyden mixing:
  rms(total) = 0.94270E-04    rms(broyden)= 0.94270E-04
  rms(prec ) = 0.14920E-03
  weight for this iteration     100.00

 Free energy of the ion-electron system (eV)
  ---------------------------------------------------
  alpha Z        PSCENC =         2.32409760
  Ewald energy   TEWEN  =      -136.49576690
  -Hartree energ DENC   =        -0.45106717
  -exchange      EXHF   =         0.00000000
  -V(xc)+E(xc)   XCENC  =        -8.75580413
  PAW double counting   =        33.77970331      -16.19367807
  entropy T*S    EENTRO =         0.00000000
  eigenvalues    EBANDS =        17.83755456
  atomic energy  EATOM  =       103.06635137
  Solvation  Ediel_sol  =         0.00000000
  ---------------------------------------------------
  free energy    TOTEN  =        -4.88860943 eV

  energy without entropy =       -4.88860943  energy(sigma->0) =       -4.88860943


--------------------------------------------------------------------------------------------------------




--------------------------------------- Iteration      1(   6)  ---------------------------------------


    POTLOK:  cpu time    0.0240: real time    0.0283
    SETDIJ:  cpu time    0.0040: real time    0.0035
    EDDIAG:  cpu time    0.1600: real time    0.1582
  RMM-DIIS:  cpu time    0.2840: real time    0.2836
    ORTHCH:  cpu time    0.0040: real time    0.0076
 BZINTS: Fermi energy: 10.224976;  4.000000 electrons
         Band energy:  17.837493;  BLOECHL correction: -0.121193
       DOS:  cpu time    0.0320: real time    0.0295
    --------------------------------------------
      LOOP:  cpu time    0.5080: real time    0.5107

 eigenvalue-minimisations  :   555
 total energy-change (2. order) : 0.1498794E-06  ( 0.5001736E-11)
 number of electron       4.0000000 magnetization      -0.0000038
 augmentation part       -0.2471175 magnetization      -0.0000010

 Free energy of the ion-electron system (eV)
  ---------------------------------------------------
  alpha Z        PSCENC =         2.32409760
  Ewald energy   TEWEN  =      -136.49576690
  -Hartree energ DENC   =        -0.45104949
  -exchange      EXHF   =         0.00000000
  -V(xc)+E(xc)   XCENC  =        -8.75582364
  PAW double counting   =        33.77741743      -16.19132871
  entropy T*S    EENTRO =         0.00000000
  eigenvalues    EBANDS =        17.83749306
  atomic energy  EATOM  =       103.06635137
  Solvation  Ediel_sol  =         0.00000000
  ---------------------------------------------------
  free energy    TOTEN  =        -4.88860928 eV

  energy without entropy =       -4.88860928  energy(sigma->0) =       -4.88860928


--------------------------------------------------------------------------------------------------------




 average (electrostatic) potential at core
  the test charge radii are     0.9892
  (the norm of the test charge is              1.0000)
       1 -79.9268
 
 
 
 E-fermi :  10.2250     XC(G=0): -11.1905     alpha+bet :-16.5589


 spin component 1

 k-point     1 :       0.0500    0.0500    0.0500
  band No.  band energies     occupation 
      1      -4.2145      1.00000
      2      19.8152      0.00000
      3      20.8300      0.00000
      4      20.8300      0.00000
      5      22.6288      0.00000
      6      22.6288      0.00000

 k-point     2 :       0.1500    0.0500    0.0500
  band No.  band energies     occupation 
      1      -3.8268      1.00000
      2      17.0723      0.00000
      3      18.5800      0.00000
      4      21.0055      0.00000
      5      22.8766      0.00000
      6      23.6127      0.00000

 k-point     3 :       0.2500    0.0500    0.0500
  band No.  band energies     occupation 
      1      -2.8609      1.00000
      2      12.8655     -0.01452
      3      17.7357      0.00000
      4      20.1114      0.00000
      5      23.2870      0.00000
      6      23.7052      0.00000

 k-point     4 :       0.3500    0.0500    0.0500
  band No.  band energies     occupation 
      1      -1.3260      1.00000
      2       8.9540      1.01658
      3      17.3691      0.00000
      4      19.4612      0.00000
      5      21.9939      0.00000
      6      22.9577      0.00000

 k-point     5 :       0.4500    0.0500    0.0500
  band No.  band energies     occupation 
      1       0.7582      1.00000
      2       5.4884      1.00000
      3      17.4675      0.00000
      4      18.8338      0.00000
      5      21.3393      0.00000
      6      21.5722      0.00000

 k-point     6 :      -0.4500    0.0500    0.0500
  band No.  band energies     occupation 
      1       2.3762      1.00000
      2       3.5230      1.00000
      3      17.9543      0.00000
      4      18.1977      0.00000
      5      20.7511      0.00000
      6      21.6385      0.00000

 k-point     7 :      -0.3500    0.0500    0.0500
  band No.  band energies     occupation 
      1       0.0048      1.00000
      2       6.5885      1.00000
      3      17.8332      0.00000
      4      18.5823      0.00000
      5      20.7711      0.00000
      6      22.6325      0.00000

 k-point     8 :      -0.2500    0.0500    0.0500
  band No.  band energies     occupation 
      1      -1.9000      1.00000
      2      10.2133      0.47896
      3      17.8921      0.00000
      4      19.1050      0.00000
      5      21.8057      0.00000
      6      23.8863      0.00000

 k-point     9 :      -0.1500    0.0500    0.0500
  band No.  band energies     occupation 
      1      -3.2466      1.00000
      2      14.2490     -0.00000
      3      18.4215      0.00000
      4      19.7720      0.00000
      5      22.8774      0.00000
      6      24.1923      0.00000

 k-point    10 :      -0.0500    0.0500    0.0500
  band No.  band energies     occupation 
      1      -4.0206      1.00000
      2      18.4612      0.00000
      3      19.4262      0.00000
      4      20.7345      0.00000
      5      21.8016      0.00000
      6      24.0486      0.00000

 k-point    11 :       0.1500    0.1500    0.0500
  band No.  band energies     occupation 
      1      -3.6331      1.00000
      2      17.1530      0.00000
      3      18.1153      0.00000
      4      19.8790      0.00000
      5      20.7120      0.00000
      6      24.4179      0.00000

 k-point    12 :       0.2500    0.1500    0.0500
  band No.  band energies     occupation 
      1      -2.8606      1.00000
      2      14.5339      0.00000
      3      16.1927      0.00000
      4      19.4790      0.00000
      5      20.7421      0.00000
      6      22.8535      0.00000

 k-point    13 :       0.3500    0.1500    0.0500
  band No.  band energies     occupation 
      1      -1.5163      1.00000
      2      10.5580      0.28947
      3      15.6566      0.00000
      4      18.0810      0.00000
      5      20.2567      0.00000
      6      24.4265      0.00000

 k-point    14 :       0.4500    0.1500    0.0500
  band No.  band energies     occupation 
      1       0.3852      1.00000
      2       6.9507      1.00154
      3      15.5922      0.00000
      4      16.6766      0.00000
      5      20.0786      0.00000
      6      23.8377      0.00000

 k-point    15 :      -0.4500    0.1500    0.0500
  band No.  band energies     occupation 
      1       2.7557      1.00000
      2       3.8899      1.00000
      3      15.3418      0.00000
      4      16.2879      0.00000
      5      20.4998      0.00000
      6      22.7961      0.00000

 k-point    16 :      -0.3500    0.1500    0.0500
  band No.  band energies     occupation 
      1       1.1373      1.00000
      2       5.8531      1.00000
      3      14.7469      0.00000
      4      17.1843      0.00000
      5      21.3283      0.00000
      6      22.3578      0.00000

 k-point    17 :      -0.2500    0.1500    0.0500
  band No.  band energies     occupation 
      1      -0.9434      1.00000
      2       9.3033      0.93514
      3      14.6015      0.00000
      4      18.5397      0.00000
      5      21.8816      0.00000
      6      23.1863      0.00000

 k-point    18 :      -0.1500    0.1500    0.0500
  band No.  band energies     occupation 
      1      -2.4756      1.00000
      2      13.1597     -0.00897
      3      14.9843      0.00000
      4      20.0739      0.00000
      5      22.3865      0.00000
      6      23.9257      0.00000

 k-point    19 :      -0.0500    0.1500    0.0500
  band No.  band energies     occupation 
      1      -3.4398      1.00000
      2      15.7382      0.00000
      3      17.3444      0.00000
      4      20.6012      0.00000
      5      22.0640      0.00000
      6      24.7090      0.00000

 k-point    20 :       0.2500    0.2500    0.0500
  band No.  band energies     occupation 
      1      -2.2827      1.00000
      2      14.9358      0.00000
      3      15.9450      0.00000
      4      17.2177      0.00000
      5      18.1258      0.00000
      6      20.4049      0.00000

 k-point    21 :       0.3500    0.2500    0.0500
  band No.  band energies     occupation 
      1      -1.1327      1.00000
      2      12.5939     -0.01971
      3      14.2697      0.00000
      4      15.4109      0.00000
      5      18.5101      0.00000
      6      20.6278      0.00000

 k-point    22 :       0.4500    0.2500    0.0500
  band No.  band energies     occupation 
      1       0.5780      1.00000
      2       8.9286      1.02722
      3      13.3598      0.00000
      4      14.2830      0.00000
      5      18.5318      0.00000
      6      23.3841      0.00000

 k-point    23 :      -0.4500    0.2500    0.0500
  band No.  band energies     occupation 
      1       2.8192      1.00000
      2       5.6718      1.00000
      3      12.0370     -0.04431
      4      14.5483      0.00000
      5      18.9055      0.00000
      6      25.7659      0.00000

 k-point    24 :      -0.3500    0.2500    0.0500
  band No.  band energies     occupation 
      1       2.8195      1.00000
      2       5.6652      1.00000
      3      11.1738      0.03337
      4      15.3840      0.00000
      5      19.7840      0.00000
      6      25.1874      0.00000

 k-point    25 :      -0.2500    0.2500    0.0500
  band No.  band energies     occupation 
      1       0.5770      1.00000
      2       8.8717      1.01659
      3      10.8850     -0.00644
      4      16.7138      0.00000
      5      21.1374      0.00000
      6      24.8811      0.00000

 k-point    26 :      -0.1500    0.2500    0.0500
  band No.  band energies     occupation 
      1      -1.1338      1.00000
      2      10.8543      0.16454
      3      12.8008      0.00000
      4      18.4442      0.00000
      5      22.6948      0.00000
      6      23.5743      0.00000

 k-point    27 :      -0.0500    0.2500    0.0500
  band No.  band energies     occupation 
      1      -2.2835      1.00000
      2      11.6302     -0.02697
      3      16.6541      0.00000
      4      19.6541      0.00000
      5      21.7711      0.00000
      6      24.4029      0.00000

 k-point    28 :       0.3500    0.3500    0.0500
  band No.  band energies     occupation 
      1      -0.1789      1.00000
      2      12.6462     -0.01036
      3      13.4466      0.00000
      4      14.4264      0.00000
      5      16.3675      0.00000
      6      18.5491      0.00000

 k-point    29 :       0.4500    0.3500    0.0500
  band No.  band energies     occupation 
      1       1.3352      1.00000
      2      10.5320      0.41298
      3      11.4346     -0.01896
      4      13.1978      0.00000
      5      17.2308      0.00000
      6      19.4252      0.00000

 k-point    30 :      -0.4500    0.3500    0.0500
  band No.  band energies     occupation 
      1       3.3868      1.00000
      2       7.9598      1.00183
      3       9.0893      0.99969
      4      13.3335      0.00000
      5      17.6357      0.00000
      6      22.6454      0.00000

 k-point    31 :      -0.3500    0.3500    0.0500
  band No.  band energies     occupation 
      1       5.0032      1.00000
      2       5.9930      1.00000
      3       8.0299      1.02584
      4      14.0173      0.00000
      5      18.3900      0.00000
      6      26.3329      0.00000

 k-point    32 :      -0.2500    0.3500    0.0500
  band No.  band energies     occupation 
      1       2.6426      1.00000
      2       7.2363      1.00000
      3       9.2819      0.96045
      4      15.2124      0.00000
      5      19.6266      0.00000
      6      26.6253      0.00000

 k-point    33 :      -0.1500    0.3500    0.0500
  band No.  band energies     occupation 
      1       0.7644      1.00000
      2       7.3054      1.00561
      3      12.7437     -0.01517
      4      16.8731      0.00000
      5      21.2415      0.00000
      6      23.4775      0.00000

 k-point    34 :      -0.0500    0.3500    0.0500
  band No.  band energies     occupation 
      1      -0.5634      1.00000
      2       7.8643      1.01958
      3      16.4562      0.00000
      4      18.6280      0.00000
      5      20.9545      0.00000
      6      23.1404      0.00000

 k-point    35 :       0.4500    0.4500    0.0500
  band No.  band energies     occupation 
      1       2.6457      1.00000
      2       8.2639      1.06826
      3      12.5234     -0.01668
      4      13.5793      0.00000
      5      15.4298      0.00000
      6      17.6425      0.00000

 k-point    36 :      -0.4500    0.4500    0.0500
  band No.  band energies     occupation 
      1       4.4569      1.00000
      2       6.4871      1.00000
      3      10.8494      0.16007
      4      12.6589      0.00000
      5      16.6845      0.00000
      6      18.9130      0.00000

 k-point    37 :      -0.3500    0.4500    0.0500
  band No.  band energies     occupation 
      1       5.0020      1.00000
      2       6.9480      1.00000
      3       7.9771      1.02603
      4      13.1563      0.00000
      5      17.4562      0.00000
      6      22.4918      0.00000

 k-point    38 :      -0.2500    0.4500    0.0500
  band No.  band energies     occupation 
      1       4.2572      1.00000
      2       5.3416      1.00000
      3       9.9333      0.65039
      4      14.1929      0.00000
      5      18.5628      0.00000
      6      26.3074      0.00000

 k-point    39 :      -0.1500    0.4500    0.0500
  band No.  band energies     occupation 
      1       3.1340      1.00000
      2       4.2548      1.00000
      3      13.2437     -0.00251
      4      15.7299      0.00000
      5      20.0871      0.00000
      6      23.8931      0.00000

 k-point    40 :      -0.0500    0.4500    0.0500
  band No.  band energies     occupation 
      1       1.6894      1.00000
      2       4.5746      1.00000
      3      16.7045      0.00000
      4      17.6259      0.00000
      5      20.9274      0.00000
      6      21.9883      0.00000

 k-point    41 :      -0.4500   -0.4500    0.0500
  band No.  band energies     occupation 
      1       4.2733      1.00000
      2       6.3082      1.00000
      3      12.3454     -0.02591
      4      13.4097      0.00000
      5      15.2423      0.00000
      6      17.4632      0.00000

 k-point    42 :      -0.3500   -0.4500    0.0500
  band No.  band energies     occupation 
      1       2.8319      1.00000
      2       8.4334      1.04320
      3      11.0351      0.04097
      4      12.8369      0.00000
      5      16.8667      0.00000
      6      19.0840      0.00000

 k-point    43 :      -0.2500   -0.4500    0.0500
  band No.  band energies     occupation 
      1       1.8972      1.00000
      2       8.3738      1.02124
      3      11.1689      0.01726
      4      13.6926      0.00000
      5      17.9940      0.00000
      6      22.9474      0.00000

 k-point    44 :      -0.1500   -0.4500    0.0500
  band No.  band energies     occupation 
      1       1.5156      1.00000
      2       6.2179      1.00000
      3      14.2007      0.00000
      4      15.1313      0.00000
      5      19.4121      0.00000
      6      24.7612      0.00000

 k-point    45 :      -0.3500   -0.3500    0.0500
  band No.  band energies     occupation 
      1       1.1470      1.00000
      2      10.4081      0.34476
      3      12.8816     -0.00497
      4      13.9184      0.00000
      5      15.8048      0.00000
      6      18.0023      0.00000

 k-point    46 :      -0.2500   -0.3500    0.0500
  band No.  band energies     occupation 
      1       0.0108      1.00000
      2      11.8511     -0.05717
      3      12.8634      0.00000
      4      13.7927      0.00000
      5      17.7769      0.00000
      6      19.9370      0.00000

 k-point    47 :      -0.1500   -0.3500    0.0500
  band No.  band energies     occupation 
      1      -0.5614      1.00000
      2       9.6563      0.78968
      3      14.7653      0.00000
      4      15.9005      0.00000
      5      19.2602      0.00000
      6      23.9212      0.00000

 k-point    48 :      -0.2500   -0.2500    0.0500
  band No.  band energies     occupation 
      1      -1.3236      1.00000
      2      14.0448      0.00000
      3      15.0772      0.00000
      4      15.1025      0.00000
      5      17.1241      0.00000
      6      19.3118      0.00000

 k-point    49 :      -0.1500   -0.2500    0.0500
  band No.  band energies     occupation 
      1      -2.0908      1.00000
      2      13.4831     -0.00389
      3      15.1732      0.00000
      4      17.6569      0.00000
      5      19.4648      0.00000
      6      21.5421      0.00000

 k-point    50 :      -0.1500   -0.1500    0.0500
  band No.  band energies     occupation 
      1      -3.0533      1.00000
      2      15.9703      0.00000
      3      16.9510      0.00000
      4      18.7388      0.00000
      5      19.4697      0.00000
      6      22.1078      0.00000

 k-point    51 :       0.1500    0.1500    0.1500
  band No.  band energies     occupation 
      1      -3.6332      1.00000
      2      15.6114      0.00000
      3      19.6995      0.00000
      4      19.6995      0.00000
      5      23.4037      0.00000
      6      24.1870      0.00000

 k-point    52 :       0.2500    0.1500    0.1500
  band No.  band energies     occupation 
      1      -3.0536      1.00000
      2      14.3811      0.00000
      3      16.1343      0.00000
      4      20.9905      0.00000
      5      23.2319      0.00000
      6      24.3804      0.00000

 k-point    53 :       0.3500    0.1500    0.1500
  band No.  band energies     occupation 
      1      -1.8995      1.00000
      2      11.9259     -0.04055
      3      13.8288      0.00000
      4      19.9355      0.00000
      5      23.1574      0.00000
      6      23.7865      0.00000

 k-point    54 :       0.4500    0.1500    0.1500
  band No.  band energies     occupation 
      1      -0.1823      1.00000
      2       8.2167      1.02942
      3      13.6063     -0.00082
      4      18.4204      0.00000
      5      21.3509      0.00000
      6      23.4448      0.00000

 k-point    55 :      -0.4500    0.1500    0.1500
  band No.  band energies     occupation 
      1       2.0672      1.00000
      2       4.9408      1.00000
      3      13.9349      0.00000
      4      17.1978      0.00000
      5      19.9646      0.00000
      6      23.6619      0.00000

 k-point    56 :      -0.3500    0.1500    0.1500
  band No.  band energies     occupation 
      1       2.0672      1.00000
      2       4.9420      1.00000
      3      14.7668      0.00000
      4      16.4072      0.00000
      5      19.1014      0.00000
      6      24.4119      0.00000

 k-point    57 :      -0.2500    0.1500    0.1500
  band No.  band energies     occupation 
      1      -0.1820      1.00000
      2       8.2227      1.03094
      3      16.0344      0.00000
      4      16.0936      0.00000
      5      18.8291      0.00000
      6      25.4376      0.00000

 k-point    58 :      -0.1500    0.1500    0.1500
  band No.  band energies     occupation 
      1      -1.8991      1.00000
      2      11.9667     -0.03100
      3      16.2737      0.00000
      4      17.5022      0.00000
      5      19.2623      0.00000
      6      22.9766      0.00000

 k-point    59 :       0.2500    0.2500    0.1500
  band No.  band energies     occupation 
      1      -2.6680      1.00000
      2      13.0285     -0.01169
      3      17.2722      0.00000
      4      18.9360      0.00000
      5      21.0971      0.00000
      6      23.9385      0.00000

 k-point    60 :       0.3500    0.2500    0.1500
  band No.  band energies     occupation 
      1      -1.7075      1.00000
      2      12.0968     -0.03587
      3      13.9621      0.00000
      4      18.0882      0.00000
      5      21.3215      0.00000
      6      23.0725      0.00000

 k-point    61 :       0.4500    0.2500    0.1500
  band No.  band energies     occupation 
      1      -0.1809      1.00000
      2       9.9537      0.79221
      3      11.9227     -0.00219
      4      16.2123      0.00000
      5      22.4494      0.00000
      6      23.4274      0.00000

 k-point    62 :      -0.4500    0.2500    0.1500
  band No.  band energies     occupation 
      1       1.8925      1.00000
      2       6.5743      1.00000
      3      12.0299     -0.03362
      4      14.7018      0.00000
      5      21.8527      0.00000
      6      23.1796      0.00000

 k-point    63 :      -0.3500    0.2500    0.1500
  band No.  band energies     occupation 
      1       3.5104      1.00000
      2       4.6196      1.00000
      3      12.6497     -0.02034
      4      13.7411      0.00000
      5      21.0266      0.00000
      6      23.6571      0.00000

 k-point    64 :      -0.2500    0.2500    0.1500
  band No.  band energies     occupation 
      1       1.1431      1.00000
[...]
      4      11.6197      0.00000
      5      18.8937      0.00000
      6      20.9576      0.00000

 k-point    74 :      -0.3500    0.4500    0.1500
  band No.  band energies     occupation 
      1       5.3684      1.00000
      2       7.3114      1.00000
      3       8.2353      1.00000
      4      10.2591      0.20336
      5      20.9554      0.00000
      6      22.8332      0.00000

 k-point    75 :      -0.2500    0.4500    0.1500
  band No.  band energies     occupation 
      1       5.3706      1.00000
      2       6.3519      1.00000
      3       8.3599      1.02244
      4      11.0803     -0.00486
      5      21.8559      0.00000
      6      25.7738      0.00000

 k-point    76 :      -0.1500    0.4500    0.1500
  band No.  band energies     occupation 
      1       3.1937      1.00000
      2       6.0290      1.00000
      3      11.4253     -0.03154
      4      12.5594      0.00000
      5      22.1350      0.00000
      6      23.5359      0.00000

 k-point    77 :      -0.4500   -0.4500    0.1500
  band No.  band energies     occupation 
      1       4.6395      1.00000
      2       6.6581      1.00000
      3       9.3295      0.93067
      4      13.7465      0.00000
      5      16.1232      0.00000
      6      20.5544      0.00000

 k-point    78 :      -0.3500   -0.4500    0.1500
  band No.  band energies     occupation 
      1       4.8231      1.00000
      2       6.8378      1.00000
      3       9.4422      0.99198
      4      11.4274      0.00000
      5      18.7174      0.00000
      6      20.7977      0.00000

 k-point    79 :      -0.2500   -0.4500    0.1500
  band No.  band energies     occupation 
      1       3.7579      1.00000
      2       8.2810      1.00000
      3       9.3113      1.00756
      4      10.5152      0.03050
      5      21.1217      0.00000
      6      22.9615      0.00000

 k-point    80 :      -0.3500   -0.3500    0.1500
  band No.  band energies     occupation 
      1       3.0174      1.00000
      2       8.5589      1.01502
      3       9.5613      0.76104
      4      13.9159      0.00000
      5      16.3113      0.00000
      6      20.7196      0.00000

 k-point    81 :      -0.2500   -0.3500    0.1500
  band No.  band energies     occupation 
      1       1.7107      1.00000
      2       9.9041      0.90902
      3      10.9221      0.02989
      4      12.0564      0.00000
      5      19.2447      0.00000
      6      21.2740      0.00000

 k-point    82 :      -0.2500   -0.2500    0.1500
  band No.  band energies     occupation 
      1       0.2001      1.00000
      2      10.3447      0.41730
      3      13.0934      0.00000
      4      14.7612      0.00000
      5      17.2611      0.00000
      6      21.5357      0.00000

 k-point    83 :       0.2500    0.2500    0.2500
  band No.  band energies     occupation 
      1      -2.4759      1.00000
      2      11.4623     -0.01714
      3      18.9836      0.00000
      4      18.9836      0.00000
      5      23.2581      0.00000
      6      23.5864      0.00000

 k-point    84 :       0.3500    0.2500    0.2500
  band No.  band energies     occupation 
      1      -1.7081      1.00000
      2      10.3838      0.38376
      3      15.5952      0.00000
      4      19.8554      0.00000
      5      22.5855      0.00000
      6      23.1566      0.00000

 k-point    85 :       0.4500    0.2500    0.2500
  band No.  band energies     occupation 
      1      -0.3715      1.00000
      2       9.7764      0.88922
      3      11.7666     -0.00779
      4      18.2914      0.00000
      5      21.2362      0.00000
      6      24.9103      0.00000

 k-point    86 :      -0.4500    0.2500    0.2500
  band No.  band energies     occupation 
      1       1.5196      1.00000
      2       7.9643      1.00000
      3      10.0003      0.52275
      4      16.7246      0.00000
      5      19.5070      0.00000
      6      26.4535      0.00000

 k-point    87 :      -0.3500    0.2500    0.2500
  band No.  band energies     occupation 
      1       3.8867      1.00000
      2       4.9767      1.00000
      3      10.4699      0.33364
      4      15.5828      0.00000
      5      18.2390      0.00000
      6      26.9059      0.00000

 k-point    88 :      -0.2500    0.2500    0.2500
  band No.  band energies     occupation 
      1       2.2686      1.00000
      2       6.9404      1.00028
      3      11.5252     -0.02497
      4      14.9230      0.00000
      5      17.4936      0.00000
      6      24.7981      0.00000

 k-point    89 :       0.3500    0.3500    0.2500
  band No.  band energies     occupation 
      1      -1.1345      1.00000
      2       9.1313      0.98082
      3      16.9195      0.00000
      4      18.0132      0.00000
      5      20.0063      0.00000
      6      24.7703      0.00000

 k-point    90 :       0.4500    0.3500    0.2500
  band No.  band energies     occupation 
      1       0.0081      1.00000
      2       8.3960      1.03454
      3      13.7359     -0.00006
      4      16.3719      0.00000
      5      21.1663      0.00000
      6      23.7267      0.00000

 k-point    91 :      -0.4500    0.3500    0.2500
  band No.  band energies     occupation 
      1       1.7082      1.00000
      2       8.1444      1.00000
      3      10.1662      0.37875
      4      14.5196      0.00000
      5      21.8632      0.00000
      6      24.4142      0.00000

 k-point    92 :      -0.3500    0.3500    0.2500
  band No.  band energies     occupation 
      1       3.9375      1.00000
      2       6.6921      1.00000
      3       8.7359      1.04215
      4      13.1295      0.00000
      5      20.6030      0.00000
      6      26.2751      0.00000

 k-point    93 :      -0.2500    0.3500    0.2500
  band No.  band energies     occupation 
      1       3.9354      1.00000
      2       6.7433      1.00000
      3       9.5657      0.88197
      4      12.2705     -0.01393
      5      19.7326      0.00000
      6      24.6145      0.00000

 k-point    94 :       0.4500    0.4500    0.2500
  band No.  band energies     occupation 
      1       0.9542      1.00000
      2       7.4918      1.01036
      3      13.7675      0.00000
      4      15.4263      0.00000
      5      18.0508      0.00000
      6      25.1423      0.00000

 k-point    95 :      -0.4500    0.4500    0.2500
  band No.  band energies     occupation 
      1       2.4562      1.00000
      2       7.1154      1.00127
      3      11.6102     -0.05681
      4      12.7004      0.00000
      5      20.0644      0.00000
      6      24.7131      0.00000

 k-point    96 :      -0.3500    0.4500    0.2500
  band No.  band energies     occupation 
      1       4.4900      1.00000
      2       7.2284      1.00000
      3       9.1501      1.02008
      4      10.3036      0.16990
      5      23.2674      0.00000
      6      24.2775      0.00000

 k-point    97 :      -0.2500    0.4500    0.2500
  band No.  band energies     occupation 
      1       6.0737      1.00000
      2       7.0173      1.00000
      3       8.0793      1.00000
      4       9.3134      1.01656
      5      23.2516      0.00000
      6      24.6943      0.00000

 k-point    98 :      -0.4500   -0.4500    0.2500
  band No.  band energies     occupation 
      1       3.7495      1.00000
      2       6.5674      1.00000
      3       9.4080      0.89163
      4      14.5863      0.00000
      5      17.1251      0.00000
      6      24.5392      0.00000

 k-point    99 :      -0.3500   -0.4500    0.2500
  band No.  band energies     occupation 
      1       5.5235      1.00000
      2       6.5126      1.00000
      3       7.7100      1.00610
      4      12.0804     -0.02567
      5      19.5646      0.00000
      6      24.5177      0.00000

 k-point   100 :      -0.3500   -0.3500    0.2500
  band No.  band energies     occupation 
      1       5.3390      1.00000
      2       6.3337      1.00000
      3       7.5424      1.00228
      4      14.4177      0.00000
      5      16.9410      0.00000
      6      24.4034      0.00000

 k-point   101 :       0.3500    0.3500    0.3500
  band No.  band energies     occupation 
      1      -0.7543      1.00000
      2       7.6850      1.01510
      3      18.6915      0.00000
      4      18.6915      0.00000
      5      22.1021      0.00000
      6      22.1021      0.00000

 k-point   102 :       0.4500    0.3500    0.3500
  band No.  band energies     occupation 
      1       0.1951      1.00000
      2       6.7692      1.00034
      3      15.5732      0.00000
      4      18.6439      0.00000
      5      21.5275      0.00000
      6      22.2078      0.00000

 k-point   103 :      -0.4500    0.3500    0.3500
  band No.  band energies     occupation 
      1       1.7040      1.00000
      2       6.3925      1.00000
      3      11.8811     -0.03406
      4      16.8840      0.00000
      5      19.6641      0.00000
      6      24.9868      0.00000

 k-point   104 :      -0.3500    0.3500    0.3500
  band No.  band energies     occupation 
      1       3.7518      1.00000
      2       6.5110      1.00000
      3       8.5655      1.04185
      4      15.4164      0.00000
      5      18.0636      0.00000
      6      28.1581      0.00000

 k-point   105 :       0.4500    0.4500    0.3500
  band No.  band energies     occupation 
      1       0.9479      1.00000
      2       5.6715      1.00000
      3      16.9301      0.00000
      4      17.0534      0.00000
      5      19.7896      0.00000
      6      23.4209      0.00000

 k-point   106 :      -0.4500    0.4500    0.3500
  band No.  band energies     occupation 
      1       2.2558      1.00000
      2       5.1242      1.00000
      3      14.0008      0.00000
      4      15.1055      0.00000
      5      21.3360      0.00000
      6      22.6863      0.00000

 k-point   107 :      -0.3500    0.4500    0.3500
  band No.  band energies     occupation 
      1       4.0736      1.00000
      2       5.1582      1.00000
      3      10.6263      0.24997
      4      13.3173      0.00000
      5      20.7512      0.00000
      6      24.8969      0.00000

 k-point   108 :      -0.4500   -0.4500    0.3500
  band No.  band energies     occupation 
      1       3.3220      1.00000
      2       4.4382      1.00000
      3      12.5691     -0.02250
      4      15.9142      0.00000
      5      18.5867      0.00000
      6      25.5809      0.00000

 k-point   109 :       0.4500    0.4500    0.4500
  band No.  band energies     occupation 
      1       1.5001      1.00000
      2       4.3906      1.00000
      3      18.6931      0.00000
      4      18.6931      0.00000
      5      21.1409      0.00000
      6      21.1409      0.00000

 k-point   110 :      -0.4500    0.4500    0.4500
  band No.  band energies     occupation 
      1       2.5662      1.00000
      2       3.7065      1.00000
      3      16.0400      0.00000
      4      17.6506      0.00000
      5      20.3655      0.00000
      6      22.5283      0.00000


--------------------------------------------------------------------------------------------------------


 soft charge-density along one line, spin component           1
         0         1         2         3         4         5         6         7         8         9
 total charge-density along one line
 
 soft charge-density along one line, spin component           2
         0         1         2         3         4         5         6         7         8         9
 total charge-density along one line
 
 pseudopotential strength for first ion, spin component:           1
 17.969  -0.003  -0.000   0.000  -0.000   0.000  -0.000   0.000
 -0.003   0.005   0.000  -0.000   0.000  -0.000   0.000  -0.000
 -0.000   0.000   4.096  -0.000  -0.000  -0.006   0.000   0.000
  0.000  -0.000  -0.000   4.096  -0.000   0.000  -0.006   0.000
 -0.000   0.000  -0.000  -0.000   4.096   0.000   0.000  -0.006
  0.000  -0.000  -0.006   0.000   0.000   0.005  -0.000  -0.000
 -0.000   0.000   0.000  -0.006   0.000  -0.000   0.005  -0.000
  0.000  -0.000   0.000   0.000  -0.006  -0.000  -0.000   0.005
 pseudopotential strength for first ion, spin component:           2
 17.969  -0.003  -0.000   0.000  -0.000   0.000  -0.000   0.000
 -0.003   0.005   0.000  -0.000   0.000  -0.000   0.000  -0.000
 -0.000   0.000   4.096  -0.000  -0.000  -0.006   0.000   0.000
  0.000  -0.000  -0.000   4.096  -0.000   0.000  -0.006   0.000
 -0.000   0.000  -0.000  -0.000   4.096   0.000   0.000  -0.006
  0.000  -0.000  -0.006   0.000   0.000   0.005  -0.000  -0.000
 -0.000   0.000   0.000  -0.006   0.000  -0.000   0.005  -0.000
  0.000  -0.000   0.000   0.000  -0.006  -0.000  -0.000   0.005
 total augmentation occupancy for first ion, spin component:           1
  1.751  -0.172   0.000   0.000   0.000   0.000   0.000   0.000
 -0.172   1.113   0.000   0.000   0.000   0.000   0.000   0.000
  0.000   0.000   0.764  -0.000  -0.000  -0.419   0.000   0.000
  0.000   0.000  -0.000   0.764  -0.000   0.000  -0.419   0.000
  0.000   0.000  -0.000  -0.000   0.764   0.000   0.000  -0.419
  0.000   0.000  -0.419   0.000   0.000   0.323  -0.000  -0.000
  0.000   0.000   0.000  -0.419   0.000  -0.000   0.323  -0.000
  0.000   0.000   0.000   0.000  -0.419  -0.000  -0.000   0.323
 total augmentation occupancy for first ion, spin component:           2
 -0.000  -0.000   0.000   0.000   0.000   0.000   0.000   0.000
 -0.000   0.000   0.000   0.000   0.000   0.000   0.000   0.000
  0.000   0.000  -0.000   0.000   0.000  -0.000   0.000   0.000
  0.000   0.000   0.000  -0.000   0.000   0.000  -0.000   0.000
  0.000   0.000   0.000   0.000  -0.000   0.000   0.000  -0.000
  0.000   0.000  -0.000   0.000   0.000   0.000  -0.000  -0.000
  0.000   0.000   0.000  -0.000   0.000  -0.000   0.000  -0.000
  0.000   0.000   0.000   0.000  -0.000  -0.000  -0.000   0.000


------------------------ aborting loop because EDIFF is reached ----------------------------------------


 


 total charge     
 
# of ion       s       p       d       tot
------------------------------------------
    1        0.841   0.699   0.000   1.540
 


 magnetization (x)
 
# of ion       s       p       d       tot
------------------------------------------
    1        0.000   0.000   0.000   0.000
 
    CHARGE:  cpu time    0.0360: real time    0.0370
    FORLOC:  cpu time    0.0000: real time    0.0005
    FORNL :  cpu time    0.2760: real time    0.2756
    STRESS:  cpu time    0.8280: real time    0.8298
    FORCOR:  cpu time    0.0240: real time    0.0243
    FORHAR:  cpu time    0.0040: real time    0.0023
    MIXING:  cpu time    0.0000: real time    0.0006
    OFIELD:  cpu time    0.0000: real time    0.0001

  FORCE on cell =-STRESS in cart. coord.  units (eV):
  Direction    XX          YY          ZZ          XY          YZ          ZX
  --------------------------------------------------------------------------------------
  Alpha Z     2.32410     2.32410     2.32410
  Ewald     -45.49859   -45.49859   -45.49859     0.00000     0.00000     0.00001
  Hartree     0.15034     0.15034     0.15034    -0.00000     0.00000     0.00000
  E(xc)     -12.69291   -12.69291   -12.69291     0.00000     0.00000     0.00000
  Local      -4.97839    -4.97839    -4.97839     0.00000     0.00000     0.00000
  n-local    37.33902    38.42193    39.44795    -0.56645    -0.17050    -0.28313
  augment    -6.29673    -6.29673    -6.29674    -0.00000    -0.00000    -0.00000
  Kinetic    39.31278    28.23909    18.21220     1.89312     5.05929     1.73794
  Fock        0.00000     0.00000     0.00000     0.00000     0.00000     0.00000
  -------------------------------------------------------------------------------------
  Total      -0.00119    -0.00119    -0.00119     0.00000     0.00000     0.00000
  in kB      -0.13217    -0.13217    -0.13217     0.00000     0.00000     0.00000
  external pressure =       -0.13 kB  Pullay stress =        0.00 kB


 VOLUME and BASIS-vectors are now :
 -----------------------------------------------------------------------------
  energy-cutoff  :      520.00
  volume of cell :       14.48
      direct lattice vectors                 reciprocal lattice vectors
     2.369566000  0.000000000  1.368069000     0.422018209 -0.149205922  0.000000000
     0.789855000  2.234048000  1.368069000     0.000000000  0.447617956  0.000000000
     0.000000000  0.000000000  2.736139000    -0.211009028 -0.149205962  0.365478508

  length of vectors
     2.736138852  2.736138552  2.736139000     0.447617891  0.447617956  0.447617883


 FORCES acting on ions
    electron-ion (+dipol)            ewald-force                    non-local-force                 convergence-correction
 -----------------------------------------------------------------------------------------------
   0.651E-16 -.153E-15 0.183E-17   -.424E-15 -.764E-16 -.911E-16   -.412E-23 -.120E-22 0.288E-23   0.304E-16 -.131E-15 0.587E-16
 -----------------------------------------------------------------------------------------------
   0.651E-16 -.153E-15 0.183E-17   -.424E-15 -.764E-16 -.911E-16   -.412E-23 -.120E-22 0.288E-23   0.304E-16 -.131E-15 0.587E-16
 
 
 POSITION                                       TOTAL-FORCE (eV/Angst)
 -----------------------------------------------------------------------------------
      0.00000      0.00000      0.00000        -0.000000     -0.000000     -0.000000
 -----------------------------------------------------------------------------------
    total drift:                               -0.000000     -0.000000     -0.000000


--------------------------------------------------------------------------------------------------------



  FREE ENERGIE OF THE ION-ELECTRON SYSTEM (eV)
  ---------------------------------------------------
  free  energy   TOTEN  =        -4.88860928 eV

  energy  without entropy=       -4.88860928  energy(sigma->0) =       -4.88860928
 


--------------------------------------------------------------------------------------------------------


    POTLOK:  cpu time    0.0280: real time    0.0357


--------------------------------------------------------------------------------------------------------




--------------------------------------------------------------------------------------------------------


  
 reached required accuracy - stopping structural energy minimisation
     LOOP+:  cpu time    6.2520: real time    7.1016
    4ORBIT:  cpu time    0.0000: real time    0.0000
 


 total charge     
 
# of ion       s       p       d       tot
------------------------------------------
    1        0.841   0.699   0.000   1.540
 


 magnetization (x)
 
# of ion       s       p       d       tot
------------------------------------------
    1        0.000   0.000   0.000   0.000
 
 BZINTS: Fermi energy: 10.224976;  4.000000 electrons
         Band energy:  17.837493;  BLOECHL correction: -0.121193

 total amount of memory used by VASP MPI-rank0    38869. kBytes
=======================================================================

   base      :      30000. kBytes
   nonlr-proj:        351. kBytes
   fftplans  :       1158. kBytes
   grid      :       3046. kBytes
   one-center:          6. kBytes
   wavefun   :       4308. kBytes
 
  
  
 General timing and accounting informations for this job:
 ========================================================
  
                  Total CPU time used (sec):        7.948
                            User time (sec):        7.212
                          System time (sec):        0.736
                         Elapsed time (sec):       11.722
  
                   Maximum memory used (kb):       28620.
                   Average memory used (kb):           0.
  
                          Minor page faults:         8522
                          Major page faults:           29
                 Voluntary context switches:       133248
