<?xml version="1.0" encoding="ISO-8859-1"?>
<modeling>
 <generator>
  <i name="program" type="string">vasp </i>
  <i name="version" type="string">5.4.4.18Apr17-6-g9f103f2a35  </i>
  <i name="subversion" type="string">(build Feb 10 2018 14:21:16) complex            parallel </i>
  <i name="platform" type="string">IFC17.0.2.174_CrayMPICH7.6.2_MKL17.0.2.174 </i>
  <i name="date" type="string">2018 08 02 </i>
  <i name="time" type="string">11:41:48 </i>
 </generator>
 <incar>
  <i type="string" name="PREC">accurate</i>
  <i type="string" name="ALGO"> Fast</i>
  <i type="int" name="ISPIN">     2</i>
  <i type="int" name="ICHARG">     1</i>
  <i type="int" name="NELM">   100</i>
  <i type="int" name="IBRION">     2</i>
  <i name="EDIFF">      0.00005000</i>
  <i type="int" name="NSW">    99</i>
  <i type="int" name="ISIF">     3</i>
  <i name="ENCUT">    520.00000000</i>
  <v name="MAGMOM">      0.60000000</v>
  <i type="string" name="LREAL"> Auto</i>
  <i type="int" name="ISMEAR">    -5</i>
  <i name="SIGMA">      0.05000000</i>
  <i type="logical" name="LWAVE"> F  </i>
  <i type="int" name="LORBIT">    11</i>
  <v type="int" name="KPOINT_BSE">    -1     0     0     0</v>
  <i type="int" name="NELM">   100</i>
 </incar>
 <structure name="primitive_cell" >
  <crystal>
   <varray name="basis" >
    <v>       2.36956600       0.00000000       1.36806900 </v>
    <v>       0.78985500       2.23404800       1.36806900 </v>
    <v>       0.00000000       0.00000000       2.73613900 </v>
   </varray>
   <i name="volume">     14.48436519 </i>
   <varray name="rec_basis" >
    <v>       0.42201821      -0.14920592       0.00000000 </v>
    <v>       0.00000000       0.44761796       0.00000000 </v>
    <v>      -0.21100903      -0.14920596       0.36547851 </v>
   </varray>
  </crystal>
  <varray name="positions" >
   <v>       0.00000000       0.00000000       0.00000000 </v>
  </varray>
 </structure>
 <varray name="primitive_index" >
  <v type="int" >        1 </v>
 </varray>
 <kpoints>
  <generation param="Monkhorst-Pack">
   <v type="int" name="divisions">      10       10       10 </v>
   <v name="usershift">      0.00000000       0.00000000       0.00000000 </v>
   <v name="genvec1">      0.10000000      -0.00000000       0.00000000 </v>
   <v name="genvec2">      0.00000000       0.10000000       0.00000000 </v>
   <v name="genvec3">      0.00000000       0.00000000       0.10000000 </v>
   <v name="shift">      0.50000000       0.50000000       0.50000000 </v>
  </generation>
  <varray name="kpointlist" >
   <v>       0.05000000       0.05000000       0.05000000 </v>
   <v>       0.15000000       0.05000000       0.05000000 </v>
   <v>       0.25000000       0.05000000       0.05000000 </v>
   <v>       0.35000000       0.05000000       0.05000000 </v>
   <v>       0.45000000       0.05000000       0.05000000 </v>
   <v>      -0.45000000       0.05000000       0.05000000 </v>
   <v>      -0.35000000       0.05000000       0.05000000 </v>
   <v>      -0.25000000       0.05000000       0.05000000 </v>
   <v>      -0.15000000       0.05000000       0.05000000 </v>
   <v>      -0.05000000       0.05000000       0.05000000 </v>
   <v>       0.15000000       0.15000000       0.05000000 </v>
   <v>       0.25000000       0.15000000       0.05000000 </v>
   <v>       0.35000000       0.15000000       0.05000000 </v>
   <v>       0.45000000       0.15000000       0.05000000 </v>
   <v>      -0.45000000       0.15000000       0.05000000 </v>
   <v>      -0.35000000       0.15000000       0.05000000 </v>
   <v>      -0.25000000       0.15000000       0.05000000 </v>
   <v>      -0.15000000       0.15000000       0.05000000 </v>
   <v>      -0.05000000       0.15000000       0.05000000 </v>
   <v>       0.25000000       0.25000000       0.05000000 </v>
   <v>       0.35000000       0.25000000       0.05000000 </v>
   <v>       0.45000000       0.25000000       0.05000000 </v>
   <v>      -0.45000000       0.25000000       0.05000000 </v>
   <v>      -0.35000000       0.25000000       0.05000000 </v>
   <v>      -0.25000000       0.25000000       0.05000000 </v>
   <v>      -0.15000000       0.25000000       0.05000000 </v>
   <v>      -0.05000000       0.25000000       0.05000000 </v>
   <v>       0.35000000       0.35000000       0.05000000 </v>
   <v>       0.45000000       0.35000000       0.05000000 </v>
   <v>      -0.45000000       0.35000000       0.05000000 </v>
   <v>      -0.35000000       0.35000000       0.05000000 </v>
   <v>      -0.25000000       0.35000000       0.05000000 </v>
   <v>      -0.15000000       0.35000000       0.05000000 </v>
   <v>      -0.05000000       0.35000000       0.05000000 </v>
   <v>       0.45000000       0.45000000       0.05000000 </v>
   <v>      -0.45000000       0.45000000       0.05000000 </v>
   <v>      -0.35000000       0.45000000       0.05000000 </v>
   <v>      -0.25000000       0.45000000       0.05000000 </v>
   <v>      -0.15000000       0.45000000       0.05000000 </v>
   <v>      -0.05000000       0.45000000       0.05000000 </v>
   <v>      -0.45000000      -0.45000000       0.05000000 </v>
   <v>      -0.35000000      -0.45000000       0.05000000 </v>
   <v>      -0.25000000      -0.45000000       0.05000000 </v>
   <v>      -0.15000000      -0.45000000       0.05000000 </v>
   <v>      -0.35000000      -0.35000000       0.05000000 </v>
   <v>      -0.25000000      -0.35000000       0.05000000 </v>
   <v>      -0.15000000      -0.35000000       0.05000000 </v>
   <v>      -0.25000000      -0.25000000       0.05000000 </v>
   <v>      -0.15000000      -0.25000000       0.05000000 </v>
   <v>      -0.15000000      -0.15000000       0.05000000 </v>
   <v>       0.15000000       0.15000000       0.15000000 </v>
   <v>       0.25000000       0.15000000       0.15000000 </v>
   <v>       0.35000000       0.15000000       0.15000000 </v>
   <v>       0.45000000       0.15000000       0.15000000 </v>
   <v>      -0.45000000       0.15000000       0.15000000 </v>
   <v>      -0.35000000       0.15000000       0.15000000 </v>
   <v>      -0.25000000       0.15000000       0.15000000 </v>
   <v>      -0.15000000       0.15000000       0.15000000 </v>
   <v>       0.25000000       0.25000000       0.15000000 </v>
   <v>       0.35000000       0.25000000       0.15000000 </v>
   <v>       0.45000000       0.25000000       0.15000000 </v>
   <v>      -0.45000000       0.25000000       0.15000000 </v>
   <v>      -0.35000000       0.25000000       0.15000000 </v>
   <v>      -0.25000000       0.25000000       0.15000000 </v>
   <v>      -0.15000000       0.25000000       0.15000000 </v>
   <v>       0.35000000       0.35000000       0.15000000 </v>
   <v>       0.45000000       0.35000000       0.15000000 </v>
   <v>      -0.45000000       0.35000000       0.15000000 </v>
   <v>      -0.35000000       0.35000000       0.15000000 </v>
   <v>      -0.25000000       0.35000000       0.15000000 </v>
   <v>      -0.15000000       0.35000000       0.15000000 </v>
   <v>       0.45000000       0.45000000       0.15000000 </v>
   <v>      -0.45000000       0.45000000       0.15000000 </v>
   <v>      -0.35000000       0.45000000       0.15000000 </v>
   <v>      -0.25000000       0.45000000       0.15000000 </v>
   <v>      -0.15000000       0.45000000       0.15000000 </v>
   <v>      -0.45000000      -0.45000000       0.15000000 </v>
   <v>      -0.35000000      -0.45000000       0.15000000 </v>
   <v>      -0.25000000      -0.45000000       0.15000000 </v>
   <v>      -0.35000000      -0.35000000       0.15000000 </v>
   <v>      -0.25000000      -0.35000000       0.15000000 </v>
   <v>      -0.25000000      -0.25000000       0.15000000 </v>
   <v>       0.25000000       0.25000000       0.25000000 </v>
   <v>       0.35000000       0.25000000       0.25000000 </v>
   <v>       0.45000000       0.25000000       0.25000000 </v>
   <v>      -0.45000000       0.25000000       0.25000000 </v>
   <v>      -0.35000000       0.25000000       0.25000000 </v>
   <v>      -0.25000000       0.25000000       0.25000000 </v>
   <v>       0.35000000       0.35000000       0.25000000 </v>
   <v>       0.45000000       0.35000000       0.25000000 </v>
   <v>      -0.45000000       0.35000000       0.25000000 </v>
   <v>      -0.35000000       0.35000000       0.25000000 </v>
   <v>      -0.25000000       0.35000000       0.25000000 </v>
   <v>       0.45000000       0.45000000       0.25000000 </v>
   <v>      -0.45000000       0.45000000       0.25000000 </v>
   <v>      -0.35000000       0.45000000       0.25000000 </v>
   <v>      -0.25000000       0.45000000       0.25000000 </v>
   <v>      -0.45000000      -0.45000000       0.25000000 </v>
   <v>      -0.35000000      -0.45000000       0.25000000 </v>
   <v>      -0.35000000      -0.35000000       0.25000000 </v>
   <v>       0.35000000       0.35000000       0.35000000 </v>
   <v>       0.45000000       0.35000000       0.35000000 </v>
   <v>      -0.45000000       0.35000000       0.35000000 </v>
   <v>      -0.35000000       0.35000000       0.35000000 </v>
   <v>       0.45000000       0.45000000       0.35000000 </v>
   <v>      -0.45000000       0.45000000       0.35000000 </v>
   <v>      -0.35000000       0.45000000       0.35000000 </v>
   <v>      -0.45000000      -0.45000000       0.35000000 </v>
   <v>       0.45000000       0.45000000       0.45000000 </v>
   <v>      -0.45000000       0.45000000       0.45000000 </v>
  </varray>
  <varray name="weights" >
   <v>       0.00200000 </v>
   <v>       0.00600000 </v>
   <v>       0.00600000 </v>
   <v>       0.00600000 </v>
   <v>       0.00600000 </v>
   <v>       0.00600000 </v>
   <v>       0.00600000 </v>
   <v>       0.00600000 </v>
   <v>       0.00600000 </v>
   <v>       0.00600000 </v>
   <v>       0.00600000 </v>
   <v>       0.01200000 </v>
   <v>       0.01200000 </v>
   <v>       0.01200000 </v>
   <v>       0.01200000 </v>
   <v>       0.01200000 </v>
   <v>       0.01200000 </v>
   <v>       0.01200000 </v>
   <v>       0.01200000 </v>
   <v>       0.00600000 </v>
   <v>       0.01200000 </v>
   <v>       0.01200000 </v>
   <v>       0.01200000 </v>
   <v>       0.01200000 </v>
   <v>       0.01200000 </v>
   <v>       0.01200000 </v>
   <v>       0.01200000 </v>
   <v>       0.00600000 </v>
   <v>       0.01200000 </v>
   <v>       0.01200000 </v>
   <v>       0.01200000 </v>
   <v>       0.01200000 </v>
   <v>       0.01200000 </v>
   <v>       0.01200000 </v>
   <v>       0.00600000 </v>
   <v>       0.01200000 </v>
   <v>       0.01200000 </v>
   <v>       0.01200000 </v>
   <v>       0.01200000 </v>
   <v>       0.01200000 </v>
   <v>       0.00600000 </v>
   <v>       0.01200000 </v>
   <v>       0.01200000 </v>
   <v>       0.01200000 </v>
   <v>       0.00600000 </v>
   <v>       0.01200000 </v>
   <v>       0.01200000 </v>
   <v>       0.00600000 </v>
   <v>       0.01200000 </v>
   <v>       0.00600000 </v>
   <v>       0.00200000 </v>
   <v>       0.00600000 </v>
   <v>       0.00600000 </v>
   <v>       0.00600000 </v>
   <v>       0.00600000 </v>
   <v>       0.00600000 </v>
   <v>       0.00600000 </v>
   <v>       0.00600000 </v>
   <v>       0.00600000 </v>
   <v>       0.01200000 </v>
   <v>       0.01200000 </v>
   <v>       0.01200000 </v>
   <v>       0.01200000 </v>
   <v>       0.01200000 </v>
   <v>       0.01200000 </v>
   <v>       0.00600000 </v>
   <v>       0.01200000 </v>
   <v>       0.01200000 </v>
   <v>       0.01200000 </v>
   <v>       0.01200000 </v>
   <v>       0.01200000 </v>
   <v>       0.00600000 </v>
   <v>       0.01200000 </v>
   <v>       0.01200000 </v>
   <v>       0.01200000 </v>
   <v>       0.01200000 </v>
   <v>       0.00600000 </v>
   <v>       0.01200000 </v>
   <v>       0.01200000 </v>
   <v>       0.00600000 </v>
   <v>       0.01200000 </v>
   <v>       0.00600000 </v>
   <v>       0.00200000 </v>
   <v>       0.00600000 </v>
   <v>       0.00600000 </v>
   <v>       0.00600000 </v>
   <v>       0.00600000 </v>
   <v>       0.00600000 </v>
   <v>       0.00600000 </v>
   <v>       0.01200000 </v>
   <v>       0.01200000 </v>
   <v>       0.01200000 </v>
   <v>       0.01200000 </v>
   <v>       0.00600000 </v>
   <v>       0.01200000 </v>
   <v>       0.01200000 </v>
   <v>       0.01200000 </v>
   <v>       0.00600000 </v>
   <v>       0.01200000 </v>
   <v>       0.00600000 </v>
   <v>       0.00200000 </v>
   <v>       0.00600000 </v>
   <v>       0.00600000 </v>
   <v>       0.00600000 </v>
   <v>       0.00600000 </v>
   <v>       0.01200000 </v>
   <v>       0.01200000 </v>
   <v>       0.00600000 </v>
   <v>       0.00200000 </v>
   <v>       0.00600000 </v>
  </varray>
  <varray name="tetrahedronlist"  type="int" >
   <v type="int" >       24        1        2       10       51 </v>
   <v type="int" >       24        2        9       10       19 </v>
   <v type="int" >       24        9       10       11       19 </v>
   <v type="int" >       24        2        9       10       51 </v>
   <v type="int" >       24       11       12       19       59 </v>
   <v type="int" >       24       11       12       50       59 </v>
   <v type="int" >       24        9       11       19       59 </v>
   <v type="int" >       24       12       49       50       58 </v>
   <v type="int" >       24       20       49       50       58 </v>
   <v type="int" >       24       12       50       58       59 </v>
   <v type="int" >       24       20       21       49       66 </v>
   <v type="int" >       24       20       21       48       66 </v>
   <v type="int" >       24       20       49       58       66 </v>
   <v type="int" >       24       21       46       48       82 </v>
   <v type="int" >       24       28       46       48       82 </v>
   <v type="int" >       24       21       48       66       82 </v>
   <v type="int" >       24       28       29       46       72 </v>
   <v type="int" >       24       28       29       45       72 </v>
   <v type="int" >       24       28       46       72       82 </v>
   <v type="int" >       24       29       42       45       80 </v>
   <v type="int" >       24       35       42       45       80 </v>
   <v type="int" >       24       29       45       72       80 </v>
   <v type="int" >       24       35       36       42       77 </v>
   <v type="int" >       24       35       36       41       77 </v>
   <v type="int" >       24       35       42       77       80 </v>
   <v type="int" >       24       36       36       41       77 </v>
   <v type="int" >       24       36       41       41       77 </v>
   <v type="int" >       24       36       41       77       77 </v>
   <v type="int" >       24       36       41       42       80 </v>
   <v type="int" >       24       35       41       42       80 </v>
   <v type="int" >       24       36       41       77       80 </v>
   <v type="int" >       24       29       35       42       72 </v>
   <v type="int" >       24       29       35       45       72 </v>
   <v type="int" >       24       35       42       72       80 </v>
   <v type="int" >       24       29       45       46       82 </v>
   <v type="int" >       24       28       45       46       82 </v>
   <v type="int" >       24       29       45       72       82 </v>
   <v type="int" >       24       21       28       46       66 </v>
   <v type="int" >       24       21       28       48       66 </v>
   <v type="int" >       24       28       46       66       82 </v>
   <v type="int" >       24       21       48       49       58 </v>
   <v type="int" >       24       20       48       49       58 </v>
   <v type="int" >       24       21       48       58       66 </v>
   <v type="int" >       24       12       20       49       59 </v>
   <v type="int" >       24       12       20       50       59 </v>
   <v type="int" >       24       20       49       58       59 </v>
   <v type="int" >       24        9       12       19       50 </v>
   <v type="int" >       24        9       11       19       50 </v>
   <v type="int" >       24        9       12       50       59 </v>
   <v type="int" >       24        2       11       19       51 </v>
   <v type="int" >       24        2       10       11       51 </v>
   <v type="int" >       24        9       11       19       51 </v>
   <v type="int" >       36        2        2       10       10 </v>
   <v type="int" >       48        1        2       10       10 </v>
   <v type="int" >       24        2        2       10       51 </v>
   <v type="int" >       24        1        1        2       10 </v>
   <v type="int" >       24        1        2        2       10 </v>
   <v type="int" >       24        2        3       19       52 </v>
   <v type="int" >       24        2        3        9       19 </v>
   <v type="int" >       24        2        3        9       51 </v>
   <v type="int" >       24       18       19       27       52 </v>
   <v type="int" >       24       12       18       19       27 </v>
   <v type="int" >       24       12       19       27       59 </v>
   <v type="int" >       24        3       19       27       52 </v>
   <v type="int" >       24        3        9       19       27 </v>
   <v type="int" >       24        9       19       27       59 </v>
   <v type="int" >       24       12       13       18       60 </v>
   <v type="int" >       24       12       13       49       60 </v>
   <v type="int" >       24       12       13       49       58 </v>
   <v type="int" >       24       12       13       18       27 </v>
   <v type="int" >       24       12       13       27       59 </v>
   <v type="int" >       24       12       13       58       59 </v>
   <v type="int" >       24       47       49       60       65 </v>
   <v type="int" >       24       21       47       49       65 </v>
   <v type="int" >       24       21       47       49       66 </v>
   <v type="int" >       24       13       47       49       60 </v>
   <v type="int" >       24       13       47       49       58 </v>
   <v type="int" >       24       47       49       58       66 </v>
   <v type="int" >       24       21       22       65       67 </v>
   <v type="int" >       24       21       22       46       67 </v>
   <v type="int" >       24       21       22       46       82 </v>
   <v type="int" >       24       21       22       47       65 </v>
   <v type="int" >       24       21       22       47       66 </v>
   <v type="int" >       24       21       22       66       82 </v>
   <v type="int" >       24       43       46       67       81 </v>
   <v type="int" >       24       29       43       46       81 </v>
   <v type="int" >       24       29       43       46       72 </v>
   <v type="int" >       24       22       43       46       67 </v>
   <v type="int" >       24       22       43       46       82 </v>
   <v type="int" >       24       43       46       72       82 </v>
   <v type="int" >       24       29       30       73       81 </v>
   <v type="int" >       24       29       30       42       73 </v>
   <v type="int" >       24       29       30       42       80 </v>
   <v type="int" >       24       29       30       43       81 </v>
   <v type="int" >       24       29       30       43       72 </v>
   <v type="int" >       24       29       30       72       80 </v>
   <v type="int" >       24       37       42       73       78 </v>
   <v type="int" >       24       36       37       42       78 </v>
   <v type="int" >       24       36       37       42       77 </v>
   <v type="int" >       24       30       37       42       73 </v>
   <v type="int" >       24       30       37       42       80 </v>
   <v type="int" >       24       37       42       77       80 </v>
   <v type="int" >       24       36       37       78       78 </v>
   <v type="int" >       24       36       36       37       78 </v>
   <v type="int" >       24       36       36       37       77 </v>
   <v type="int" >       24       36       37       37       78 </v>
   <v type="int" >       24       36       37       37       77 </v>
   <v type="int" >       24       36       37       77       77 </v>
   <v type="int" >       24       30       36       73       78 </v>
   <v type="int" >       24       30       36       42       73 </v>
   <v type="int" >       24       30       36       42       80 </v>
   <v type="int" >       24       30       36       37       78 </v>
   <v type="int" >       24       30       36       37       77 </v>
   <v type="int" >       24       30       36       77       80 </v>
   <v type="int" >       24       42       43       73       81 </v>
   <v type="int" >       24       29       42       43       81 </v>
   <v type="int" >       24       29       42       43       72 </v>
   <v type="int" >       24       30       42       43       73 </v>
   <v type="int" >       24       30       42       43       80 </v>
   <v type="int" >       24       42       43       72       80 </v>
   <v type="int" >       24       22       29       67       81 </v>
   <v type="int" >       24       22       29       46       67 </v>
   <v type="int" >       24       22       29       46       82 </v>
   <v type="int" >       24       22       29       43       81 </v>
   <v type="int" >       24       22       29       43       72 </v>
   <v type="int" >       24       22       29       72       82 </v>
   <v type="int" >       24       46       47       65       67 </v>
   <v type="int" >       24       21       46       47       65 </v>
   <v type="int" >       24       21       46       47       66 </v>
   <v type="int" >       24       22       46       47       67 </v>
   <v type="int" >       24       22       46       47       82 </v>
   <v type="int" >       24       46       47       66       82 </v>
   <v type="int" >       24       13       21       60       65 </v>
   <v type="int" >       24       13       21       49       60 </v>
   <v type="int" >       24       13       21       49       58 </v>
   <v type="int" >       24       13       21       47       65 </v>
   <v type="int" >       24       13       21       47       66 </v>
   <v type="int" >       24       13       21       58       66 </v>
   <v type="int" >       24       18       27       49       60 </v>
   <v type="int" >       24       12       18       27       49 </v>
   <v type="int" >       24       12       27       49       59 </v>
   <v type="int" >       24       13       27       49       60 </v>
   <v type="int" >       24       13       27       49       58 </v>
   <v type="int" >       24       27       49       58       59 </v>
   <v type="int" >       24        3       12       18       52 </v>
   <v type="int" >       24        3       12       19       52 </v>
   <v type="int" >       24        3        9       12       19 </v>
   <v type="int" >       24        3       12       18       27 </v>
   <v type="int" >       24        3       12       27       59 </v>
   <v type="int" >       24        3        9       12       59 </v>
   <v type="int" >       24        9       19       19       52 </v>
   <v type="int" >       48        2        9       19       19 </v>
   <v type="int" >       48        2        9       19       51 </v>
   <v type="int" >       24        3        9       19       52 </v>
   <v type="int" >       24        3        9        9       19 </v>
   <v type="int" >       24        9        9       19       51 </v>
   <v type="int" >       48        2       11       19       19 </v>
   <v type="int" >       24        2       10       11       19 </v>
   <v type="int" >       48        2        2       10       19 </v>
   <v type="int" >       24        2        2       19       51 </v>
   <v type="int" >       24       10       11       11       19 </v>
   <v type="int" >       24       10       10       11       19 </v>
   <v type="int" >       24        2       10       10       19 </v>
   <v type="int" >       24       10       11       19       19 </v>
   <v type="int" >       24        2       10       19       19 </v>
   <v type="int" >       24       18       52       53       84 </v>
   <v type="int" >       24       18       27       52       84 </v>
   <v type="int" >       24        3       27       52       84 </v>
   <v type="int" >       24       17       18       26       53 </v>
   <v type="int" >       24       17       18       26       60 </v>
   <v type="int" >       24       13       17       18       60 </v>
   <v type="int" >       24       17       18       53       84 </v>
   <v type="int" >       24       17       18       27       84 </v>
   <v type="int" >       24       13       17       18       27 </v>
   <v type="int" >       24       26       60       61       90 </v>
   <v type="int" >       24       60       61       65       90 </v>
   <v type="int" >       24       47       60       65       90 </v>
   <v type="int" >       24       17       26       60       90 </v>
   <v type="int" >       24       13       17       60       90 </v>
   <v type="int" >       24       13       47       60       90 </v>
   <v type="int" >       24       61       64       65       71 </v>
   <v type="int" >       24       64       65       67       71 </v>
   <v type="int" >       24       22       64       65       67 </v>
   <v type="int" >       24       61       64       65       90 </v>
   <v type="int" >       24       47       64       65       90 </v>
   <v type="int" >       24       22       47       64       65 </v>
   <v type="int" >       24       67       68       71       95 </v>
   <v type="int" >       24       67       68       81       95 </v>
   <v type="int" >       24       43       67       81       95 </v>
   <v type="int" >       24       64       67       71       95 </v>
   <v type="int" >       24       22       64       67       95 </v>
   <v type="int" >       24       22       43       67       95 </v>
   <v type="int" >       24       68       79       81       93 </v>
   <v type="int" >       24       73       79       81       93 </v>
   <v type="int" >       24       30       73       81       93 </v>
   <v type="int" >       24       68       81       93       95 </v>
   <v type="int" >       24       43       81       93       95 </v>
   <v type="int" >       24       30       43       81       93 </v>
   <v type="int" >       24       73       74       79       99 </v>
   <v type="int" >       24       73       74       78       99 </v>
   <v type="int" >       24       37       73       78       99 </v>
   <v type="int" >       24       73       79       93       99 </v>
   <v type="int" >       24       30       73       93       99 </v>
   <v type="int" >       24       30       37       73       99 </v>
   <v type="int" >       24       74       74       78       99 </v>
   <v type="int" >       24       74       78       78       99 </v>
   <v type="int" >       24       37       78       78       99 </v>
   <v type="int" >       24       74       78       99       99 </v>
   <v type="int" >       24       37       78       99       99 </v>
   <v type="int" >       24       37       37       78       99 </v>
   <v type="int" >       24       74       78       79       93 </v>
   <v type="int" >       24       73       78       79       93 </v>
   <v type="int" >       24       30       73       78       93 </v>
   <v type="int" >       24       74       78       93       99 </v>
   <v type="int" >       24       37       78       93       99 </v>
   <v type="int" >       24       30       37       78       93 </v>
   <v type="int" >       24       68       73       79       95 </v>
   <v type="int" >       24       68       73       81       95 </v>
   <v type="int" >       24       43       73       81       95 </v>
   <v type="int" >       24       73       79       93       95 </v>
   <v type="int" >       24       30       73       93       95 </v>
   <v type="int" >       24       30       43       73       95 </v>
   <v type="int" >       24       64       68       71       81 </v>
   <v type="int" >       24       64       67       71       81 </v>
   <v type="int" >       24       22       64       67       81 </v>
   <v type="int" >       24       64       68       81       95 </v>
   <v type="int" >       24       43       64       81       95 </v>
   <v type="int" >       24       22       43       64       81 </v>
   <v type="int" >       24       61       67       71       90 </v>
   <v type="int" >       24       61       65       67       90 </v>
   <v type="int" >       24       47       65       67       90 </v>
   <v type="int" >       24       64       67       71       90 </v>
   <v type="int" >       24       22       64       67       90 </v>
   <v type="int" >       24       22       47       67       90 </v>
   <v type="int" >       24       17       26       61       65 </v>
   <v type="int" >       24       17       26       60       65 </v>
   <v type="int" >       24       13       17       60       65 </v>
   <v type="int" >       24       17       61       65       90 </v>
   <v type="int" >       24       17       47       65       90 </v>
   <v type="int" >       24       13       17       47       65 </v>
   <v type="int" >       24       26       53       60       84 </v>
   <v type="int" >       24       18       53       60       84 </v>
   <v type="int" >       24       18       27       60       84 </v>
   <v type="int" >       24       17       26       60       84 </v>
   <v type="int" >       24       13       17       60       84 </v>
   <v type="int" >       24       13       27       60       84 </v>
   <v type="int" >       24       18       18       27       53 </v>
   <v type="int" >       24       18       18       27       52 </v>
   <v type="int" >       24        3       18       27       52 </v>
   <v type="int" >       24       18       27       53       84 </v>
   <v type="int" >       24       18       27       27       84 </v>
   <v type="int" >       24        3       18       27       27 </v>
   <v type="int" >       24       12       18       52       59 </v>
   <v type="int" >       24       12       19       52       59 </v>
   <v type="int" >       24        9       19       52       59 </v>
   <v type="int" >       24       18       27       52       59 </v>
   <v type="int" >       24        3       27       52       59 </v>
   <v type="int" >       24        3        9       52       59 </v>
   <v type="int" >       48       12       12       19       50 </v>
   <v type="int" >       24       11       12       19       50 </v>
   <v type="int" >       48       11       12       19       19 </v>
   <v type="int" >       24       12       12       19       59 </v>
   <v type="int" >       24        9       12       19       59 </v>
   <v type="int" >       24        9       12       19       19 </v>
   <v type="int" >       24       11       12       50       50 </v>
   <v type="int" >       24       11       11       12       50 </v>
   <v type="int" >       24       11       11       12       19 </v>
   <v type="int" >       24       11       12       12       50 </v>
   <v type="int" >       24       11       12       12       19 </v>
   <v type="int" >       24       26       53       54       85 </v>
   <v type="int" >       24       17       26       53       54 </v>
   <v type="int" >       24       17       53       54       84 </v>
   <v type="int" >       24       25       26       33       85 </v>
   <v type="int" >       24       25       26       33       61 </v>
   <v type="int" >       24       26       33       61       90 </v>
   <v type="int" >       24       26       33       54       85 </v>
   <v type="int" >       24       17       26       33       54 </v>
   <v type="int" >       24       17       26       33       90 </v>
   <v type="int" >       24       25       61       62       91 </v>
   <v type="int" >       24       61       62       71       91 </v>
   <v type="int" >       24       61       62       64       71 </v>
   <v type="int" >       24       25       33       61       62 </v>
   <v type="int" >       24       33       61       62       90 </v>
   <v type="int" >       24       61       62       64       90 </v>
   <v type="int" >       24       70       71       76       91 </v>
   <v type="int" >       24       68       70       71       76 </v>
   <v type="int" >       24       68       71       76       95 </v>
   <v type="int" >       24       62       71       76       91 </v>
   <v type="int" >       24       62       64       71       76 </v>
   <v type="int" >       24       64       71       76       95 </v>
   <v type="int" >       24       68       69       70       96 </v>
   <v type="int" >       24       68       69       79       96 </v>
   <v type="int" >       24       68       69       79       93 </v>
   <v type="int" >       24       68       69       70       76 </v>
   <v type="int" >       24       68       69       76       95 </v>
   <v type="int" >       24       68       69       93       95 </v>
   <v type="int" >       24       75       79       96       97 </v>
   <v type="int" >       24       74       75       79       97 </v>
   <v type="int" >       24       74       75       79       99 </v>
   <v type="int" >       24       69       75       79       96 </v>
   <v type="int" >       24       69       75       79       93 </v>
   <v type="int" >       24       75       79       93       99 </v>
   <v type="int" >       24       74       75       97       97 </v>
   <v type="int" >       24       74       74       75       97 </v>
   <v type="int" >       24       74       74       75       99 </v>
   <v type="int" >       24       74       75       75       97 </v>
   <v type="int" >       24       74       75       75       99 </v>
   <v type="int" >       24       74       75       99       99 </v>
   <v type="int" >       24       69       74       96       97 </v>
   <v type="int" >       24       69       74       79       96 </v>
   <v type="int" >       24       69       74       79       93 </v>
   <v type="int" >       24       69       74       75       97 </v>
   <v type="int" >       24       69       74       75       99 </v>
   <v type="int" >       24       69       74       93       99 </v>
   <v type="int" >       24       70       76       79       96 </v>
   <v type="int" >       24       68       70       76       79 </v>
   <v type="int" >       24       68       76       79       95 </v>
   <v type="int" >       24       69       76       79       96 </v>
   <v type="int" >       24       69       76       79       93 </v>
   <v type="int" >       24       76       79       93       95 </v>
   <v type="int" >       24       62       68       70       91 </v>
   <v type="int" >       24       62       68       71       91 </v>
   <v type="int" >       24       62       64       68       71 </v>
   <v type="int" >       24       62       68       70       76 </v>
   <v type="int" >       24       62       68       76       95 </v>
   <v type="int" >       24       62       64       68       95 </v>
   <v type="int" >       24       25       33       71       91 </v>
   <v type="int" >       24       25       33       61       71 </v>
   <v type="int" >       24       33       61       71       90 </v>
   <v type="int" >       24       33       62       71       91 </v>
   <v type="int" >       24       33       62       64       71 </v>
   <v type="int" >       24       33       64       71       90 </v>
   <v type="int" >       24       25       54       61       85 </v>
   <v type="int" >       24       26       54       61       85 </v>
   <v type="int" >       24       17       26       54       61 </v>
   <v type="int" >       24       25       33       54       61 </v>
   <v type="int" >       24       33       54       61       90 </v>
   <v type="int" >       24       17       54       61       90 </v>
   <v type="int" >       24       17       26       26       85 </v>
   <v type="int" >       24       17       26       26       53 </v>
   <v type="int" >       24       17       26       53       84 </v>
   <v type="int" >       24       17       26       54       85 </v>
   <v type="int" >       24       17       17       26       54 </v>
   <v type="int" >       24       17       17       26       84 </v>
   <v type="int" >       24       13       26       53       60 </v>
   <v type="int" >       24       13       18       53       60 </v>
   <v type="int" >       24       13       18       27       53 </v>
   <v type="int" >       24       13       17       26       53 </v>
   <v type="int" >       24       13       17       53       84 </v>
   <v type="int" >       24       13       27       53       84 </v>
   <v type="int" >       24       18       49       58       60 </v>
   <v type="int" >       24       12       18       49       58 </v>
   <v type="int" >       24       12       18       58       59 </v>
   <v type="int" >       24       13       18       58       60 </v>
   <v type="int" >       24       13       18       27       58 </v>
   <v type="int" >       24       18       27       58       59 </v>
   <v type="int" >       48       12       20       49       49 </v>
   <v type="int" >       24       12       20       49       50 </v>
   <v type="int" >       48       12       12       49       50 </v>
   <v type="int" >       24       12       49       49       58 </v>
   <v type="int" >       24       12       49       58       59 </v>
   <v type="int" >       24       12       12       49       59 </v>
   <v type="int" >       24       20       20       49       50 </v>
   <v type="int" >       24       20       49       50       50 </v>
   <v type="int" >       24       12       49       50       50 </v>
   <v type="int" >       24       20       49       49       50 </v>
   <v type="int" >       24       12       49       49       50 </v>
   <v type="int" >       24       25       85       86      103 </v>
   <v type="int" >       24       25       33       85      103 </v>
   <v type="int" >       24       33       54       85      103 </v>
   <v type="int" >       24       24       25       32       86 </v>
   <v type="int" >       24       24       25       32       91 </v>
   <v type="int" >       24       24       25       62       91 </v>
   <v type="int" >       24       24       25       86      103 </v>
   <v type="int" >       24       24       25       33      103 </v>
   <v type="int" >       24       24       25       33       62 </v>
   <v type="int" >       24       32       91       92      107 </v>
   <v type="int" >       24       70       91       92      107 </v>
   <v type="int" >       24       70       76       91      107 </v>
   <v type="int" >       24       24       32       91      107 </v>
   <v type="int" >       24       24       62       91      107 </v>
   <v type="int" >       24       62       76       91      107 </v>
   <v type="int" >       24       69       70       75       92 </v>
   <v type="int" >       24       69       70       75       96 </v>
   <v type="int" >       24       69       69       70       96 </v>
   <v type="int" >       24       69       70       92      107 </v>
   <v type="int" >       24       69       70       76      107 </v>
   <v type="int" >       24       69       69       70       76 </v>
   <v type="int" >       72       75       96       96       97 </v>
   <v type="int" >       36       96       96       97       97 </v>
   <v type="int" >       24       69       75       96       96 </v>
   <v type="int" >       12       69       69       96       96 </v>
   <v type="int" >       48       96       97       97       97 </v>
   <v type="int" >       48       75       96       97       97 </v>
   <v type="int" >       72       75       75       96       97 </v>
   <v type="int" >       24       69       75       97       97 </v>
   <v type="int" >       48       69       75       96       97 </v>
   <v type="int" >       24       69       69       96       97 </v>
   <v type="int" >       24       69       96       97       97 </v>
   <v type="int" >       24       69       69       75       97 </v>
   <v type="int" >       24       75       92       96      107 </v>
   <v type="int" >       24       70       92       96      107 </v>
   <v type="int" >       24       70       76       96      107 </v>
   <v type="int" >       24       69       75       96      107 </v>
   <v type="int" >       24       69       69       96      107 </v>
   <v type="int" >       24       69       76       96      107 </v>
   <v type="int" >       24       24       32       70       92 </v>
   <v type="int" >       24       24       32       70       91 </v>
   <v type="int" >       24       24       62       70       91 </v>
   <v type="int" >       24       24       70       92      107 </v>
   <v type="int" >       24       24       70       76      107 </v>
   <v type="int" >       24       24       62       70       76 </v>
   <v type="int" >       24       32       86       91      103 </v>
   <v type="int" >       24       25       86       91      103 </v>
   <v type="int" >       24       25       33       91      103 </v>
   <v type="int" >       24       24       32       91      103 </v>
   <v type="int" >       24       24       62       91      103 </v>
   <v type="int" >       24       33       62       91      103 </v>
   <v type="int" >       24       25       25       33       86 </v>
   <v type="int" >       24       25       25       33       85 </v>
   <v type="int" >       24       25       33       54       85 </v>
   <v type="int" >       24       25       33       86      103 </v>
   <v type="int" >       24       25       33       33      103 </v>
   <v type="int" >       24       25       33       33       54 </v>
   <v type="int" >       24       25       61       85       90 </v>
   <v type="int" >       24       26       61       85       90 </v>
   <v type="int" >       24       17       26       85       90 </v>
   <v type="int" >       24       25       33       85       90 </v>
   <v type="int" >       24       33       54       85       90 </v>
   <v type="int" >       24       17       54       85       90 </v>
   <v type="int" >       24       26       47       61       65 </v>
   <v type="int" >       24       26       47       60       65 </v>
   <v type="int" >       24       13       26       47       60 </v>
   <v type="int" >       24       26       47       61       90 </v>
   <v type="int" >       24       17       26       47       90 </v>
   <v type="int" >       24       13       17       26       47 </v>
   <v type="int" >       24       21       60       65       66 </v>
   <v type="int" >       24       21       49       60       66 </v>
   <v type="int" >       24       49       58       60       66 </v>
   <v type="int" >       24       47       60       65       66 </v>
   <v type="int" >       24       13       47       60       66 </v>
   <v type="int" >       24       13       58       60       66 </v>
   <v type="int" >       48       21       21       48       49 </v>
   <v type="int" >       24       20       21       48       49 </v>
   <v type="int" >       48       20       21       49       49 </v>
   <v type="int" >       24       21       21       49       66 </v>
   <v type="int" >       24       21       49       58       66 </v>
   <v type="int" >       24       21       49       49       58 </v>
   <v type="int" >       24       20       21       48       48 </v>
   <v type="int" >       24       20       20       21       48 </v>
   <v type="int" >       24       20       20       21       49 </v>
   <v type="int" >       24       20       21       21       48 </v>
   <v type="int" >       24       20       21       21       49 </v>
   <v type="int" >       24       32       86       87      104 </v>
   <v type="int" >       24       24       32       86       87 </v>
   <v type="int" >       24       24       86       87      103 </v>
   <v type="int" >       24       31       32       38      104 </v>
   <v type="int" >       24       31       32       38       92 </v>
   <v type="int" >       24       32       38       92      107 </v>
   <v type="int" >       24       32       38       87      104 </v>
   <v type="int" >       24       24       32       38       87 </v>
   <v type="int" >       24       24       32       38      107 </v>
   <v type="int" >       24       31       92       93       99 </v>
   <v type="int" >       24       75       92       93       99 </v>
   <v type="int" >       24       69       75       92       93 </v>
   <v type="int" >       24       31       38       92       93 </v>
   <v type="int" >       24       38       92       93      107 </v>
   <v type="int" >       24       69       92       93      107 </v>
   <v type="int" >       24       74       74       79       97 </v>
   <v type="int" >       24       74       79       97       97 </v>
   <v type="int" >       24       79       96       97       97 </v>
   <v type="int" >       24       74       79       79       97 </v>
   <v type="int" >       24       79       79       96       97 </v>
   <v type="int" >       24       79       96       96       97 </v>
   <v type="int" >       24       74       93       97       99 </v>
   <v type="int" >       24       75       93       97       99 </v>
   <v type="int" >       24       69       75       93       97 </v>
   <v type="int" >       24       74       79       93       97 </v>
   <v type="int" >       24       79       93       96       97 </v>
   <v type="int" >       24       69       93       96       97 </v>
   <v type="int" >       24       31       38       75       99 </v>
   <v type="int" >       24       31       38       75       92 </v>
   <v type="int" >       24       38       75       92      107 </v>
   <v type="int" >       24       38       75       93       99 </v>
   <v type="int" >       24       38       69       75       93 </v>
   <v type="int" >       24       38       69       75      107 </v>
   <v type="int" >       24       31       87       92      104 </v>
   <v type="int" >       24       32       87       92      104 </v>
   <v type="int" >       24       24       32       87       92 </v>
   <v type="int" >       24       31       38       87       92 </v>
   <v type="int" >       24       38       87       92      107 </v>
   <v type="int" >       24       24       87       92      107 </v>
   <v type="int" >       24       24       32       32      104 </v>
   <v type="int" >       24       24       32       32       86 </v>
   <v type="int" >       24       24       32       86      103 </v>
   <v type="int" >       24       24       32       87      104 </v>
   <v type="int" >       24       24       24       32       87 </v>
   <v type="int" >       24       24       24       32      103 </v>
   <v type="int" >       24       32       62       86       91 </v>
   <v type="int" >       24       25       62       86       91 </v>
   <v type="int" >       24       25       33       62       86 </v>
   <v type="int" >       24       24       32       62       86 </v>
   <v type="int" >       24       24       62       86      103 </v>
   <v type="int" >       24       33       62       86      103 </v>
   <v type="int" >       24       25       64       71       91 </v>
   <v type="int" >       24       25       61       64       71 </v>
   <v type="int" >       24       25       61       64       90 </v>
   <v type="int" >       24       25       62       64       91 </v>
   <v type="int" >       24       25       33       62       64 </v>
   <v type="int" >       24       25       33       64       90 </v>
   <v type="int" >       24       22       61       67       71 </v>
   <v type="int" >       24       22       61       65       67 </v>
   <v type="int" >       24       22       47       61       65 </v>
   <v type="int" >       24       22       61       64       71 </v>
   <v type="int" >       24       22       61       64       90 </v>
   <v type="int" >       24       22       47       61       90 </v>
   <v type="int" >       24       46       65       67       82 </v>
   <v type="int" >       24       21       46       65       82 </v>
   <v type="int" >       24       21       65       66       82 </v>
   <v type="int" >       24       22       65       67       82 </v>
   <v type="int" >       24       22       47       65       82 </v>
   <v type="int" >       24       47       65       66       82 </v>
   <v type="int" >       48       21       28       46       46 </v>
   <v type="int" >       24       21       28       46       48 </v>
   <v type="int" >       48       21       21       46       48 </v>
   <v type="int" >       24       21       46       46       82 </v>
   <v type="int" >       24       21       46       66       82 </v>
   <v type="int" >       24       21       21       46       66 </v>
   <v type="int" >       24       28       28       46       48 </v>
   <v type="int" >       24       28       46       48       48 </v>
   <v type="int" >       24       21       46       48       48 </v>
   <v type="int" >       24       28       46       46       48 </v>
   <v type="int" >       24       21       46       46       48 </v>
   <v type="int" >       24       31       98      100      104 </v>
   <v type="int" >       24       31       38       98      104 </v>
   <v type="int" >       24       38       87       98      104 </v>
   <v type="int" >       24       30       31       37      100 </v>
   <v type="int" >       24       30       31       37       99 </v>
   <v type="int" >       24       30       31       93       99 </v>
   <v type="int" >       24       30       31       98      100 </v>
   <v type="int" >       24       30       31       38       98 </v>
   <v type="int" >       24       30       31       38       93 </v>
   <v type="int" >       24       73       74       78       78 </v>
   <v type="int" >       24       73       74       74       78 </v>
   <v type="int" >       24       73       74       74       79 </v>
   <v type="int" >       24       73       73       74       78 </v>
   <v type="int" >       24       73       73       74       79 </v>
   <v type="int" >       24       73       74       79       79 </v>
   <v type="int" >       24       30       37       74       78 </v>
   <v type="int" >       24       30       37       74       99 </v>
   <v type="int" >       24       30       74       93       99 </v>
   <v type="int" >       24       30       73       74       78 </v>
   <v type="int" >       24       30       73       74       79 </v>
   <v type="int" >       24       30       74       79       93 </v>
   <v type="int" >       24       37       98       99      100 </v>
   <v type="int" >       24       31       98       99      100 </v>
   <v type="int" >       24       31       38       98       99 </v>
   <v type="int" >       24       30       37       98       99 </v>
   <v type="int" >       24       30       93       98       99 </v>
   <v type="int" >       24       38       93       98       99 </v>
   <v type="int" >       24       31       31       38      100 </v>
   <v type="int" >       24       31       31       38      104 </v>
   <v type="int" >       24       31       38       87      104 </v>
   <v type="int" >       24       31       38       98      100 </v>
   <v type="int" >       24       31       38       38       98 </v>
   <v type="int" >       24       31       38       38       87 </v>
   <v type="int" >       24       31       92      104      107 </v>
   <v type="int" >       24       32       92      104      107 </v>
   <v type="int" >       24       24       32      104      107 </v>
   <v type="int" >       24       31       38      104      107 </v>
   <v type="int" >       24       38       87      104      107 </v>
   <v type="int" >       24       24       87      104      107 </v>
   <v type="int" >       24       32       70       76       92 </v>
   <v type="int" >       24       32       70       76       91 </v>
   <v type="int" >       24       32       62       76       91 </v>
   <v type="int" >       24       32       76       92      107 </v>
   <v type="int" >       24       24       32       76      107 </v>
   <v type="int" >       24       24       32       62       76 </v>
   <v type="int" >       24       68       70       91       95 </v>
   <v type="int" >       24       68       71       91       95 </v>
   <v type="int" >       24       64       71       91       95 </v>
   <v type="int" >       24       70       76       91       95 </v>
   <v type="int" >       24       62       76       91       95 </v>
   <v type="int" >       24       62       64       91       95 </v>
   <v type="int" >       24       43       68       71       81 </v>
   <v type="int" >       24       43       67       71       81 </v>
   <v type="int" >       24       22       43       67       71 </v>
   <v type="int" >       24       43       68       71       95 </v>
   <v type="int" >       24       43       64       71       95 </v>
   <v type="int" >       24       22       43       64       71 </v>
   <v type="int" >       24       29       67       72       81 </v>
   <v type="int" >       24       29       46       67       72 </v>
   <v type="int" >       24       46       67       72       82 </v>
   <v type="int" >       24       43       67       72       81 </v>
   <v type="int" >       24       22       43       67       72 </v>
   <v type="int" >       24       22       67       72       82 </v>
   <v type="int" >       48       29       29       45       46 </v>
   <v type="int" >       24       28       29       45       46 </v>
   <v type="int" >       48       28       29       46       46 </v>
   <v type="int" >       24       29       29       46       72 </v>
   <v type="int" >       24       29       46       72       82 </v>
   <v type="int" >       24       29       46       46       82 </v>
   <v type="int" >       24       28       29       45       45 </v>
   <v type="int" >       24       28       28       29       45 </v>
   <v type="int" >       24       28       28       29       46 </v>
   <v type="int" >       24       28       29       29       45 </v>
   <v type="int" >       24       28       29       29       46 </v>
   <v type="int" >       24       37       77       80      100 </v>
   <v type="int" >       24       30       37       80      100 </v>
   <v type="int" >       24       30       80       98      100 </v>
   <v type="int" >       24       36       36       42       78 </v>
   <v type="int" >       24       36       42       78       78 </v>
   <v type="int" >       24       42       73       78       78 </v>
   <v type="int" >       24       36       42       42       78 </v>
   <v type="int" >       24       42       42       73       78 </v>
   <v type="int" >       24       42       73       73       78 </v>
   <v type="int" >       24       36       77       78       80 </v>
   <v type="int" >       24       37       77       78       80 </v>
   <v type="int" >       24       30       37       78       80 </v>
   <v type="int" >       24       36       42       78       80 </v>
   <v type="int" >       24       42       73       78       80 </v>
   <v type="int" >       24       30       73       78       80 </v>
   <v type="int" >       24       30       37       37       77 </v>
   <v type="int" >       24       30       37       37      100 </v>
   <v type="int" >       24       30       37       98      100 </v>
   <v type="int" >       24       30       37       77       80 </v>
   <v type="int" >       24       30       30       37       80 </v>
   <v type="int" >       24       30       30       37       98 </v>
   <v type="int" >       24       37       93       99      100 </v>
   <v type="int" >       24       31       93       99      100 </v>
   <v type="int" >       24       31       38       93      100 </v>
   <v type="int" >       24       30       37       93      100 </v>
   <v type="int" >       24       30       93       98      100 </v>
   <v type="int" >       24       38       93       98      100 </v>
   <v type="int" >       24       31       69       75       99 </v>
   <v type="int" >       24       31       69       75       92 </v>
   <v type="int" >       24       31       69       92      107 </v>
   <v type="int" >       24       31       69       93       99 </v>
   <v type="int" >       24       31       38       69       93 </v>
   <v type="int" >       24       31       38       69      107 </v>
   <v type="int" >       24       69       75       92       96 </v>
   <v type="int" >       24       69       70       92       96 </v>
   <v type="int" >       24       69       70       76       92 </v>
   <v type="int" >       24       69       69       75       92 </v>
   <v type="int" >       24       69       69       92      107 </v>
   <v type="int" >       24       69       76       92      107 </v>
   <v type="int" >       24       70       79       93       96 </v>
   <v type="int" >       24       68       70       79       93 </v>
   <v type="int" >       24       68       70       93       95 </v>
   <v type="int" >       24       69       70       93       96 </v>
   <v type="int" >       24       69       70       76       93 </v>
   <v type="int" >       24       70       76       93       95 </v>
   <v type="int" >       24       30       68       73       79 </v>
   <v type="int" >       24       30       68       73       81 </v>
   <v type="int" >       24       30       43       68       81 </v>
   <v type="int" >       24       30       68       79       93 </v>
   <v type="int" >       24       30       68       93       95 </v>
   <v type="int" >       24       30       43       68       95 </v>
   <v type="int" >       24       42       73       80       81 </v>
   <v type="int" >       24       29       42       80       81 </v>
   <v type="int" >       24       29       72       80       81 </v>
   <v type="int" >       24       30       73       80       81 </v>
   <v type="int" >       24       30       43       80       81 </v>
   <v type="int" >       24       43       72       80       81 </v>
   <v type="int" >       48       29       35       42       42 </v>
   <v type="int" >       24       29       35       42       45 </v>
   <v type="int" >       48       29       29       42       45 </v>
   <v type="int" >       24       29       42       42       80 </v>
   <v type="int" >       24       29       42       72       80 </v>
   <v type="int" >       24       29       29       42       72 </v>
   <v type="int" >       24       35       35       42       45 </v>
   <v type="int" >       24       35       42       45       45 </v>
   <v type="int" >       24       29       42       45       45 </v>
   <v type="int" >       24       35       42       42       45 </v>
   <v type="int" >       24       29       42       42       45 </v>
   <v type="int" >       24       35       36       41       41 </v>
   <v type="int" >       24       35       36       36       41 </v>
   <v type="int" >       24       35       36       36       42 </v>
   <v type="int" >       24       35       35       36       41 </v>
   <v type="int" >       24       35       35       36       42 </v>
   <v type="int" >       48       35       36       42       42 </v>
   <v type="int" >       48       36       36       41       42 </v>
   <v type="int" >       24       36       36       42       77 </v>
   <v type="int" >       24       36       42       77       80 </v>
   <v type="int" >       24       35       36       41       42 </v>
   <v type="int" >       24       36       42       42       80 </v>
   <v type="int" >       24       36       73       77       78 </v>
   <v type="int" >       24       37       73       77       78 </v>
   <v type="int" >       24       30       37       73       77 </v>
   <v type="int" >       24       36       42       73       77 </v>
   <v type="int" >       24       42       73       77       80 </v>
   <v type="int" >       24       30       73       77       80 </v>
   <v type="int" >       24       37       74       78       79 </v>
   <v type="int" >       24       37       74       79       99 </v>
   <v type="int" >       24       37       79       93       99 </v>
   <v type="int" >       24       37       73       78       79 </v>
   <v type="int" >       24       30       37       73       79 </v>
   <v type="int" >       24       30       37       79       93 </v>
   <v type="int" >       24       74       96       97       99 </v>
   <v type="int" >       24       75       96       97       99 </v>
   <v type="int" >       24       69       75       96       99 </v>
   <v type="int" >       24       74       79       96       99 </v>
   <v type="int" >       24       79       93       96       99 </v>
   <v type="int" >       24       69       93       96       99 </v>
   <v type="int" >       36       75       75       97       97 </v>
   <v type="int" >       24       69       75       75       96 </v>
   <v type="int" >       12       69       69       75       75 </v>
   <v type="int" >       24       35       41       41       41 </v>
   <v type="int" >       24       35       35       41       41 </v>
   <v type="int" >       24       35       35       35       41 </v>
   <v type="int" >       24       36       41       41       42 </v>
   <v type="int" >       24       36       41       42       42 </v>
   <v type="int" >       24       35       41       41       42 </v>
   <v type="int" >       24       35       35       41       42 </v>
   <v type="int" >       24       35       41       42       42 </v>
   <v type="int" >       24       36       36       73       78 </v>
   <v type="int" >       24       36       73       78       78 </v>
   <v type="int" >       24       36       73       73       78 </v>
   <v type="int" >       24       36       36       42       73 </v>
   <v type="int" >       24       36       42       42       73 </v>
   <v type="int" >       24       36       42       73       73 </v>
   <v type="int" >       24       74       78       78       79 </v>
   <v type="int" >       24       74       74       78       79 </v>
   <v type="int" >       24       74       78       79       79 </v>
   <v type="int" >       24       73       78       78       79 </v>
   <v type="int" >       24       73       73       78       79 </v>
   <v type="int" >       24       73       78       79       79 </v>
   <v type="int" >       24       74       74       96       97 </v>
   <v type="int" >       24       74       96       97       97 </v>
   <v type="int" >       24       74       96       96       97 </v>
   <v type="int" >       24       74       74       79       96 </v>
   <v type="int" >       24       74       79       79       96 </v>
   <v type="int" >       24       74       79       96       96 </v>
   <v type="int" >       48       75       97       97       97 </v>
   <v type="int" >       24       74       97       97       99 </v>
   <v type="int" >       24       74       74       97       99 </v>
   <v type="int" >       24       74       97       99       99 </v>
   <v type="int" >       24       75       97       97       99 </v>
   <v type="int" >       24       75       75       97       99 </v>
   <v type="int" >       24       75       97       99       99 </v>
   <v type="int" >       24       37       74       74       78 </v>
   <v type="int" >       24       37       74       78       78 </v>
   <v type="int" >       24       37       37       74       78 </v>
   <v type="int" >       24       37       74       74       99 </v>
   <v type="int" >       24       37       74       99       99 </v>
   <v type="int" >       24       37       37       74       99 </v>
   <v type="int" >       24       36       77       78       78 </v>
   <v type="int" >       24       36       36       77       78 </v>
   <v type="int" >       24       36       77       77       78 </v>
   <v type="int" >       24       37       77       78       78 </v>
   <v type="int" >       24       37       37       77       78 </v>
   <v type="int" >       24       37       77       77       78 </v>
   <v type="int" >       72       36       36       36       41 </v>
   <v type="int" >       60       36       36       41       41 </v>
   <v type="int" >       24       36       36       36       77 </v>
   <v type="int" >       12       36       36       77       77 </v>
   <v type="int" >       48       36       41       41       41 </v>
   <v type="int" >       24       37       77       98      100 </v>
   <v type="int" >       24       30       37       77       98 </v>
   <v type="int" >       24       30       77       80       98 </v>
   <v type="int" >       24       31       37       38      100 </v>
   <v type="int" >       24       31       37       38       99 </v>
   <v type="int" >       24       37       38       93       99 </v>
   <v type="int" >       24       37       38       98      100 </v>
   <v type="int" >       24       30       37       38       98 </v>
   <v type="int" >       24       30       37       38       93 </v>
   <v type="int" >       24       31       92       99      107 </v>
   <v type="int" >       24       75       92       99      107 </v>
   <v type="int" >       24       69       75       99      107 </v>
   <v type="int" >       24       31       38       99      107 </v>
   <v type="int" >       24       38       93       99      107 </v>
   <v type="int" >       24       69       93       99      107 </v>
   <v type="int" >       24       70       75       76       92 </v>
   <v type="int" >       24       70       75       76       96 </v>
   <v type="int" >       24       69       75       76       96 </v>
   <v type="int" >       24       75       76       92      107 </v>
   <v type="int" >       24       69       75       76      107 </v>
   <v type="int" >       24       69       69       75       76 </v>
   <v type="int" >       24       68       70       95       96 </v>
   <v type="int" >       24       68       79       95       96 </v>
   <v type="int" >       24       79       93       95       96 </v>
   <v type="int" >       24       70       76       95       96 </v>
   <v type="int" >       24       69       76       95       96 </v>
   <v type="int" >       24       69       93       95       96 </v>
   <v type="int" >       24       43       68       79       81 </v>
   <v type="int" >       24       43       73       79       81 </v>
   <v type="int" >       24       30       43       73       79 </v>
   <v type="int" >       24       43       68       79       95 </v>
   <v type="int" >       24       43       79       93       95 </v>
   <v type="int" >       24       30       43       79       93 </v>
   <v type="int" >       24       29       72       73       81 </v>
   <v type="int" >       24       29       42       72       73 </v>
   <v type="int" >       24       42       72       73       80 </v>
   <v type="int" >       24       43       72       73       81 </v>
   <v type="int" >       24       30       43       72       73 </v>
   <v type="int" >       24       30       72       73       80 </v>
   <v type="int" >       24       29       35       45       45 </v>
   <v type="int" >       24       29       35       35       45 </v>
   <v type="int" >       24       29       35       35       42 </v>
   <v type="int" >       24       29       29       35       45 </v>
   <v type="int" >       24       29       29       35       42 </v>
   <v type="int" >       24       31       87      100      104 </v>
   <v type="int" >       24       31       38       87      100 </v>
   <v type="int" >       24       38       87       98      100 </v>
   <v type="int" >       24       24       31       32      104 </v>
   <v type="int" >       24       24       31       32       92 </v>
   <v type="int" >       24       24       31       92      107 </v>
   <v type="int" >       24       24       31       87      104 </v>
   <v type="int" >       24       24       31       38       87 </v>
   <v type="int" >       24       24       31       38      107 </v>
   <v type="int" >       24       32       62       91       92 </v>
   <v type="int" >       24       62       70       91       92 </v>
   <v type="int" >       24       62       70       76       92 </v>
   <v type="int" >       24       24       32       62       92 </v>
   <v type="int" >       24       24       62       92      107 </v>
   <v type="int" >       24       62       76       92      107 </v>
   <v type="int" >       24       64       70       71       91 </v>
   <v type="int" >       24       64       68       70       71 </v>
   <v type="int" >       24       64       68       70       95 </v>
   <v type="int" >       24       62       64       70       91 </v>
   <v type="int" >       24       62       64       70       76 </v>
   <v type="int" >       24       64       70       76       95 </v>
   <v type="int" >       24       22       67       68       71 </v>
   <v type="int" >       24       22       67       68       81 </v>
   <v type="int" >       24       22       43       68       81 </v>
   <v type="int" >       24       22       64       68       71 </v>
   <v type="int" >       24       22       64       68       95 </v>
   <v type="int" >       24       22       43       68       95 </v>
   <v type="int" >       24       46       67       81       82 </v>
   <v type="int" >       24       29       46       81       82 </v>
   <v type="int" >       24       29       72       81       82 </v>
   <v type="int" >       24       22       67       81       82 </v>
   <v type="int" >       24       22       43       81       82 </v>
   <v type="int" >       24       43       72       81       82 </v>
   <v type="int" >       24       28       28       45       46 </v>
   <v type="int" >       24       28       45       45       46 </v>
   <v type="int" >       24       29       45       45       46 </v>
   <v type="int" >       24       28       45       46       46 </v>
   <v type="int" >       24       29       45       46       46 </v>
   <v type="int" >       24       32       86      103      104 </v>
   <v type="int" >       24       24       32      103      104 </v>
   <v type="int" >       24       24       87      103      104 </v>
   <v type="int" >       24       25       32       33       86 </v>
   <v type="int" >       24       25       32       33       91 </v>
   <v type="int" >       24       32       33       62       91 </v>
   <v type="int" >       24       32       33       86      103 </v>
   <v type="int" >       24       24       32       33      103 </v>
   <v type="int" >       24       24       32       33       62 </v>
   <v type="int" >       24       25       61       90       91 </v>
   <v type="int" >       24       61       71       90       91 </v>
   <v type="int" >       24       64       71       90       91 </v>
   <v type="int" >       24       25       33       90       91 </v>
   <v type="int" >       24       33       62       90       91 </v>
   <v type="int" >       24       62       64       90       91 </v>
   <v type="int" >       24       47       61       65       71 </v>
   <v type="int" >       24       47       65       67       71 </v>
   <v type="int" >       24       22       47       67       71 </v>
   <v type="int" >       24       47       61       71       90 </v>
   <v type="int" >       24       47       64       71       90 </v>
   <v type="int" >       24       22       47       64       71 </v>
   <v type="int" >       24       21       65       66       67 </v>
   <v type="int" >       24       21       46       66       67 </v>
   <v type="int" >       24       46       66       67       82 </v>
   <v type="int" >       24       47       65       66       67 </v>
   <v type="int" >       24       22       47       66       67 </v>
   <v type="int" >       24       22       66       67       82 </v>
   <v type="int" >       24       21       28       48       48 </v>
   <v type="int" >       24       21       28       28       48 </v>
   <v type="int" >       24       21       28       28       46 </v>
   <v type="int" >       24       21       21       28       48 </v>
   <v type="int" >       24       21       21       28       46 </v>
   <v type="int" >       24       25       54       85       86 </v>
   <v type="int" >       24       25       33       54       86 </v>
   <v type="int" >       24       33       54       86      103 </v>
   <v type="int" >       24       17       25       26       85 </v>
   <v type="int" >       24       17       25       26       61 </v>
   <v type="int" >       24       17       25       61       90 </v>
   <v type="int" >       24       17       25       54       85 </v>
   <v type="int" >       24       17       25       33       54 </v>
   <v type="int" >       24       17       25       33       90 </v>
   <v type="int" >       24       13       26       60       61 </v>
   <v type="int" >       24       13       60       61       65 </v>
   <v type="int" >       24       13       47       61       65 </v>
   <v type="int" >       24       13       17       26       61 </v>
   <v type="int" >       24       13       17       61       90 </v>
   <v type="int" >       24       13       47       61       90 </v>
   <v type="int" >       24       49       58       60       65 </v>
   <v type="int" >       24       21       49       58       65 </v>
   <v type="int" >       24       21       58       65       66 </v>
   <v type="int" >       24       13       58       60       65 </v>
   <v type="int" >       24       13       47       58       65 </v>
   <v type="int" >       24       47       58       65       66 </v>
   <v type="int" >       24       20       20       48       49 </v>
   <v type="int" >       24       20       48       48       49 </v>
   <v type="int" >       24       21       48       48       49 </v>
   <v type="int" >       24       20       48       49       49 </v>
   <v type="int" >       24       21       48       49       49 </v>
   <v type="int" >       24       26       53       84       85 </v>
   <v type="int" >       24       17       26       84       85 </v>
   <v type="int" >       24       17       54       84       85 </v>
   <v type="int" >       24       18       26       27       53 </v>
   <v type="int" >       24       18       26       27       60 </v>
   <v type="int" >       24       13       26       27       60 </v>
   <v type="int" >       24       26       27       53       84 </v>
   <v type="int" >       24       17       26       27       84 </v>
   <v type="int" >       24       13       17       26       27 </v>
   <v type="int" >       24       12       18       59       60 </v>
   <v type="int" >       24       12       49       59       60 </v>
   <v type="int" >       24       49       58       59       60 </v>
   <v type="int" >       24       18       27       59       60 </v>
   <v type="int" >       24       13       27       59       60 </v>
   <v type="int" >       24       13       58       59       60 </v>
   <v type="int" >       24       12       20       50       50 </v>
   <v type="int" >       24       12       20       20       50 </v>
   <v type="int" >       24       12       20       20       49 </v>
   <v type="int" >       24       12       12       20       50 </v>
   <v type="int" >       24       12       12       20       49 </v>
   <v type="int" >       24        3       18       52       53 </v>
   <v type="int" >       24        3       18       27       53 </v>
   <v type="int" >       24        3       27       53       84 </v>
   <v type="int" >       24        9       18       19       52 </v>
   <v type="int" >       24        9       12       18       19 </v>
   <v type="int" >       24        9       12       18       59 </v>
   <v type="int" >       24        3        9       18       52 </v>
   <v type="int" >       24        3        9       18       27 </v>
   <v type="int" >       24        9       18       27       59 </v>
   <v type="int" >       24       11       11       19       50 </v>
   <v type="int" >       24       11       19       50       50 </v>
   <v type="int" >       24       12       19       50       50 </v>
   <v type="int" >       24       11       19       19       50 </v>
   <v type="int" >       24       12       19       19       50 </v>
   <v type="int" >       24        2       19       51       52 </v>
   <v type="int" >       24        9       19       51       52 </v>
   <v type="int" >       24        3        9       51       52 </v>
   <v type="int" >       24        2       10       10       11 </v>
   <v type="int" >       24        2       10       11       11 </v>
   <v type="int" >       24        2       11       11       19 </v>
   <v type="int" >       24        2        2       10       11 </v>
   <v type="int" >       24        2        2       11       19 </v>
   <v type="int" >       36        1        1       10       10 </v>
   <v type="int" >       48        1       10       10       10 </v>
   <v type="int" >       24        2       10       10       10 </v>
   <v type="int" >       24        1        1        1       10 </v>
   <v type="int" >       24        3        9       51       83 </v>
   <v type="int" >       24        3        8        9       27 </v>
   <v type="int" >       24        8        9       27       59 </v>
   <v type="int" >       24        3        8        9       83 </v>
   <v type="int" >       24       13       27       59       89 </v>
   <v type="int" >       24       13       58       59       89 </v>
   <v type="int" >       24        8       27       59       89 </v>
   <v type="int" >       24       13       47       57       58 </v>
   <v type="int" >       24       47       57       58       66 </v>
   <v type="int" >       24       13       57       58       89 </v>
   <v type="int" >       24       22       47       66       94 </v>
   <v type="int" >       24       22       66       82       94 </v>
   <v type="int" >       24       47       57       66       94 </v>
   <v type="int" >       24       22       43       82       88 </v>
   <v type="int" >       24       43       72       82       88 </v>
   <v type="int" >       24       22       82       88       94 </v>
   <v type="int" >       24       30       43       72       98 </v>
   <v type="int" >       24       30       72       80       98 </v>
   <v type="int" >       24       43       72       88       98 </v>
   <v type="int" >       24       37       37       77      100 </v>
   <v type="int" >       24       37       77       77      100 </v>
   <v type="int" >       24       37       77      100      100 </v>
   <v type="int" >       24       30       43       80       88 </v>
   <v type="int" >       24       43       72       80       88 </v>
   <v type="int" >       24       30       80       88       98 </v>
   <v type="int" >       24       22       43       72       94 </v>
   <v type="int" >       24       22       72       82       94 </v>
   <v type="int" >       24       43       72       88       94 </v>
   <v type="int" >       24       22       47       57       82 </v>
   <v type="int" >       24       47       57       66       82 </v>
   <v type="int" >       24       22       57       82       94 </v>
[...]
       <set comment="band 2">
        <r>  0.1375  0.0072  0.0158  0.2100  0.0000  0.0000  0.0000  0.0000  0.0000 </r>
       </set>
       <set comment="band 3">
        <r>  0.1329  0.0711  0.1879  0.0000  0.0000  0.0000  0.0000  0.0000  0.0000 </r>
       </set>
       <set comment="band 4">
        <r>  0.0000  0.3039  0.1140  0.0380  0.0000  0.0000  0.0000  0.0000  0.0000 </r>
       </set>
       <set comment="band 5">
        <r>  0.1142  0.0038  0.0125  0.0004  0.0000  0.0000  0.0000  0.0000  0.0000 </r>
       </set>
       <set comment="band 6">
        <r>  0.0160  0.0056  0.1111  0.1334  0.0000  0.0000  0.0000  0.0000  0.0000 </r>
       </set>
      </set>
      <set comment="kpoint 89">
       <set comment="band 1">
        <r>  0.3199  0.0151  0.0267  0.0303  0.0000  0.0000  0.0000  0.0000  0.0000 </r>
       </set>
       <set comment="band 2">
        <r>  0.1109  0.0177  0.1978  0.0355  0.0000  0.0000  0.0000  0.0000  0.0000 </r>
       </set>
       <set comment="band 3">
        <r>  0.0000  0.2970  0.0000  0.1485  0.0000  0.0000  0.0000  0.0000  0.0000 </r>
       </set>
       <set comment="band 4">
        <r>  0.0929  0.1260  0.0741  0.2520  0.0000  0.0000  0.0000  0.0000  0.0000 </r>
       </set>
       <set comment="band 5">
        <r>  0.0147  0.0005  0.0013  0.0010  0.0000  0.0000  0.0000  0.0000  0.0000 </r>
       </set>
       <set comment="band 6">
        <r>  0.0001  0.1106  0.0005  0.0500  0.0000  0.0000  0.0000  0.0000  0.0000 </r>
       </set>
      </set>
      <set comment="kpoint 90">
       <set comment="band 1">
        <r>  0.2981  0.0089  0.0250  0.0612  0.0000  0.0000  0.0000  0.0000  0.0000 </r>
       </set>
       <set comment="band 2">
        <r>  0.1143  0.0301  0.2049  0.0133  0.0000  0.0000  0.0000  0.0000  0.0000 </r>
       </set>
       <set comment="band 3">
        <r>  0.0947  0.0737  0.0068  0.2397  0.0000  0.0000  0.0000  0.0000  0.0000 </r>
       </set>
       <set comment="band 4">
        <r>  0.0436  0.2121  0.0484  0.0789  0.0000  0.0000  0.0000  0.0000  0.0000 </r>
       </set>
       <set comment="band 5">
        <r>  0.0204  0.1744  0.0084  0.0113  0.0000  0.0000  0.0000  0.0000  0.0000 </r>
       </set>
       <set comment="band 6">
        <r>  0.0383  0.0608  0.0877  0.0051  0.0000  0.0000  0.0000  0.0000  0.0000 </r>
       </set>
      </set>
      <set comment="kpoint 91">
       <set comment="band 1">
        <r>  0.2690  0.0047  0.0230  0.0982  0.0000  0.0000  0.0000  0.0000  0.0000 </r>
       </set>
       <set comment="band 2">
        <r>  0.0786  0.0571  0.2128  0.0000  0.0000  0.0000  0.0000  0.0000  0.0000 </r>
       </set>
       <set comment="band 3">
        <r>  0.1835  0.0488  0.0002  0.1831  0.0000  0.0000  0.0000  0.0000  0.0000 </r>
       </set>
       <set comment="band 4">
        <r>  0.0530  0.1929  0.0461  0.0703  0.0000  0.0000  0.0000  0.0000  0.0000 </r>
       </set>
       <set comment="band 5">
        <r>  0.0314  0.1471  0.0902  0.0056  0.0000  0.0000  0.0000  0.0000  0.0000 </r>
       </set>
       <set comment="band 6">
        <r>  0.0236  0.0921  0.0063  0.0173  0.0000  0.0000  0.0000  0.0000  0.0000 </r>
       </set>
      </set>
      <set comment="kpoint 92">
       <set comment="band 1">
        <r>  0.2493  0.0035  0.0226  0.1272  0.0000  0.0000  0.0000  0.0000  0.0000 </r>
       </set>
       <set comment="band 2">
        <r>  0.0792  0.0915  0.0484  0.1311  0.0000  0.0000  0.0000  0.0000  0.0000 </r>
       </set>
       <set comment="band 3">
        <r>  0.2085  0.0207  0.1606  0.0163  0.0000  0.0000  0.0000  0.0000  0.0000 </r>
       </set>
       <set comment="band 4">
        <r>  0.0617  0.1988  0.0497  0.0511  0.0000  0.0000  0.0000  0.0000  0.0000 </r>
       </set>
       <set comment="band 5">
        <r>  0.0521  0.1035  0.0866  0.0000  0.0000  0.0000  0.0000  0.0000  0.0000 </r>
       </set>
       <set comment="band 6">
        <r>  0.0143  0.0033  0.1597  0.0007  0.0000  0.0000  0.0000  0.0000  0.0000 </r>
       </set>
      </set>
      <set comment="kpoint 93">
       <set comment="band 1">
        <r>  0.2305  0.0742  0.0351  0.0579  0.0000  0.0000  0.0000  0.0000  0.0000 </r>
       </set>
       <set comment="band 2">
        <r>  0.1383  0.0003  0.0085  0.2253  0.0000  0.0000  0.0000  0.0000  0.0000 </r>
       </set>
       <set comment="band 3">
        <r>  0.1639  0.0534  0.1749  0.0009  0.0000  0.0000  0.0000  0.0000  0.0000 </r>
       </set>
       <set comment="band 4">
        <r>  0.0624  0.2033  0.0622  0.0283  0.0000  0.0000  0.0000  0.0000  0.0000 </r>
       </set>
       <set comment="band 5">
        <r>  0.0558  0.0874  0.0754  0.0078  0.0000  0.0000  0.0000  0.0000  0.0000 </r>
       </set>
       <set comment="band 6">
        <r>  0.0157  0.0010  0.1309  0.1256  0.0000  0.0000  0.0000  0.0000  0.0000 </r>
       </set>
      </set>
      <set comment="kpoint 94">
       <set comment="band 1">
        <r>  0.2810  0.0302  0.0225  0.0603  0.0000  0.0000  0.0000  0.0000  0.0000 </r>
       </set>
       <set comment="band 2">
        <r>  0.1298  0.0097  0.2089  0.0194  0.0000  0.0000  0.0000  0.0000  0.0000 </r>
       </set>
       <set comment="band 3">
        <r>  0.1156  0.0843  0.0461  0.1687  0.0000  0.0000  0.0000  0.0000  0.0000 </r>
       </set>
       <set comment="band 4">
        <r>  0.0000  0.3009  0.0000  0.1504  0.0000  0.0000  0.0000  0.0000  0.0000 </r>
       </set>
       <set comment="band 5">
        <r>  0.0927  0.0058  0.0043  0.0115  0.0000  0.0000  0.0000  0.0000  0.0000 </r>
       </set>
       <set comment="band 6">
        <r>  0.0055  0.0109  0.2443  0.0223  0.0000  0.0000  0.0000  0.0000  0.0000 </r>
       </set>
      </set>
      <set comment="kpoint 95">
       <set comment="band 1">
        <r>  0.2553  0.0217  0.0191  0.0994  0.0000  0.0000  0.0000  0.0000  0.0000 </r>
       </set>
       <set comment="band 2">
        <r>  0.1298  0.0212  0.2119  0.0053  0.0000  0.0000  0.0000  0.0000  0.0000 </r>
       </set>
       <set comment="band 3">
        <r>  0.1738  0.0357  0.0459  0.1869  0.0000  0.0000  0.0000  0.0000  0.0000 </r>
       </set>
       <set comment="band 4">
        <r>  0.0269  0.2189  0.0006  0.0679  0.0000  0.0000  0.0000  0.0000  0.0000 </r>
       </set>
       <set comment="band 5">
        <r>  0.0490  0.1489  0.0043  0.0235  0.0000  0.0000  0.0000  0.0000  0.0000 </r>
       </set>
       <set comment="band 6">
        <r>  0.0025  0.0471  0.2370  0.0016  0.0000  0.0000  0.0000  0.0000  0.0000 </r>
       </set>
      </set>
      <set comment="kpoint 96">
       <set comment="band 1">
        <r>  0.2259  0.0169  0.0143  0.1423  0.0000  0.0000  0.0000  0.0000  0.0000 </r>
       </set>
       <set comment="band 2">
        <r>  0.0891  0.0520  0.2142  0.0006  0.0000  0.0000  0.0000  0.0000  0.0000 </r>
       </set>
       <set comment="band 3">
        <r>  0.2679  0.0253  0.0059  0.1709  0.0000  0.0000  0.0000  0.0000  0.0000 </r>
       </set>
       <set comment="band 4">
        <r>  0.0332  0.1935  0.0431  0.0126  0.0000  0.0000  0.0000  0.0000  0.0000 </r>
       </set>
       <set comment="band 5">
        <r>  0.0053  0.2318  0.0300  0.0339  0.0000  0.0000  0.0000  0.0000  0.0000 </r>
       </set>
       <set comment="band 6">
        <r>  0.0096  0.0179  0.1581  0.0102  0.0000  0.0000  0.0000  0.0000  0.0000 </r>
       </set>
      </set>
      <set comment="kpoint 97">
       <set comment="band 1">
        <r>  0.1849  0.1180  0.0602  0.0374  0.0000  0.0000  0.0000  0.0000  0.0000 </r>
       </set>
       <set comment="band 2">
        <r>  0.1209  0.0035  0.0002  0.2500  0.0000  0.0000  0.0000  0.0000  0.0000 </r>
       </set>
       <set comment="band 3">
        <r>  0.2669  0.0542  0.1062  0.0203  0.0000  0.0000  0.0000  0.0000  0.0000 </r>
       </set>
       <set comment="band 4">
        <r>  0.0494  0.1218  0.1098  0.0041  0.0000  0.0000  0.0000  0.0000  0.0000 </r>
       </set>
       <set comment="band 5">
        <r>  0.0149  0.1354  0.0917  0.0061  0.0000  0.0000  0.0000  0.0000  0.0000 </r>
       </set>
       <set comment="band 6">
        <r>  0.0028  0.0086  0.1506  0.1253  0.0000  0.0000  0.0000  0.0000  0.0000 </r>
       </set>
      </set>
      <set comment="kpoint 98">
       <set comment="band 1">
        <r>  0.2330  0.0505  0.0129  0.1010  0.0000  0.0000  0.0000  0.0000  0.0000 </r>
       </set>
       <set comment="band 2">
        <r>  0.1463  0.0067  0.2083  0.0134  0.0000  0.0000  0.0000  0.0000  0.0000 </r>
       </set>
       <set comment="band 3">
        <r>  0.1515  0.0575  0.0549  0.1149  0.0000  0.0000  0.0000  0.0000  0.0000 </r>
       </set>
       <set comment="band 4">
        <r>  0.0000  0.3063  0.0000  0.1532  0.0000  0.0000  0.0000  0.0000  0.0000 </r>
       </set>
       <set comment="band 5">
        <r>  0.1271  0.0015  0.0056  0.0031  0.0000  0.0000  0.0000  0.0000  0.0000 </r>
       </set>
       <set comment="band 6">
        <r>  0.0237  0.0020  0.2291  0.0041  0.0000  0.0000  0.0000  0.0000  0.0000 </r>
       </set>
      </set>
      <set comment="kpoint 99">
       <set comment="band 1">
        <r>  0.1897  0.0466  0.0012  0.1626  0.0000  0.0000  0.0000  0.0000  0.0000 </r>
       </set>
       <set comment="band 2">
        <r>  0.1794  0.0357  0.1652  0.0161  0.0000  0.0000  0.0000  0.0000  0.0000 </r>
       </set>
       <set comment="band 3">
        <r>  0.1594  0.0366  0.1108  0.0513  0.0000  0.0000  0.0000  0.0000  0.0000 </r>
       </set>
       <set comment="band 4">
        <r>  0.0713  0.1910  0.0008  0.1019  0.0000  0.0000  0.0000  0.0000  0.0000 </r>
       </set>
       <set comment="band 5">
        <r>  0.0591  0.1169  0.0035  0.0472  0.0000  0.0000  0.0000  0.0000  0.0000 </r>
       </set>
       <set comment="band 6">
        <r>  0.0224  0.0083  0.2343  0.0008  0.0000  0.0000  0.0000  0.0000  0.0000 </r>
       </set>
      </set>
      <set comment="kpoint 100">
       <set comment="band 1">
        <r>  0.1927  0.0689  0.0010  0.1377  0.0000  0.0000  0.0000  0.0000  0.0000 </r>
       </set>
       <set comment="band 2">
        <r>  0.1886  0.0158  0.1632  0.0316  0.0000  0.0000  0.0000  0.0000  0.0000 </r>
       </set>
       <set comment="band 3">
        <r>  0.1509  0.0287  0.1122  0.0575  0.0000  0.0000  0.0000  0.0000  0.0000 </r>
       </set>
       <set comment="band 4">
        <r>  0.0000  0.3076  0.0000  0.1538  0.0000  0.0000  0.0000  0.0000  0.0000 </r>
       </set>
       <set comment="band 5">
        <r>  0.1332  0.0002  0.0058  0.0004  0.0000  0.0000  0.0000  0.0000  0.0000 </r>
       </set>
       <set comment="band 6">
        <r>  0.0276  0.0002  0.2277  0.0004  0.0000  0.0000  0.0000  0.0000  0.0000 </r>
       </set>
      </set>
      <set comment="kpoint 101">
       <set comment="band 1">
        <r>  0.3148  0.0086  0.0519  0.0173  0.0000  0.0000  0.0000  0.0000  0.0000 </r>
       </set>
       <set comment="band 2">
        <r>  0.1289  0.0262  0.1575  0.0525  0.0000  0.0000  0.0000  0.0000  0.0000 </r>
       </set>
       <set comment="band 3">
        <r>  0.0000  0.0378  0.0830  0.4051  0.0000  0.0000  0.0000  0.0000  0.0000 </r>
       </set>
       <set comment="band 4">
        <r>  0.0000  0.4297  0.0923  0.0040  0.0000  0.0000  0.0000  0.0000  0.0000 </r>
       </set>
       <set comment="band 5">
        <r>  0.0000  0.0538  0.0165  0.0153  0.0000  0.0000  0.0000  0.0000  0.0000 </r>
       </set>
       <set comment="band 6">
        <r>  0.0000  0.0224  0.0120  0.0513  0.0000  0.0000  0.0000  0.0000  0.0000 </r>
       </set>
      </set>
      <set comment="kpoint 102">
       <set comment="band 1">
        <r>  0.2993  0.0039  0.0486  0.0422  0.0000  0.0000  0.0000  0.0000  0.0000 </r>
       </set>
       <set comment="band 2">
        <r>  0.1370  0.0368  0.1661  0.0266  0.0000  0.0000  0.0000  0.0000  0.0000 </r>
       </set>
       <set comment="band 3">
        <r>  0.0623  0.0726  0.0207  0.2635  0.0000  0.0000  0.0000  0.0000  0.0000 </r>
       </set>
       <set comment="band 4">
        <r>  0.0000  0.3547  0.1330  0.0443  0.0000  0.0000  0.0000  0.0000  0.0000 </r>
       </set>
       <set comment="band 5">
        <r>  0.0477  0.0077  0.0009  0.0905  0.0000  0.0000  0.0000  0.0000  0.0000 </r>
       </set>
       <set comment="band 6">
        <r>  0.0000  0.0517  0.0192  0.0064  0.0000  0.0000  0.0000  0.0000  0.0000 </r>
       </set>
      </set>
      <set comment="kpoint 103">
       <set comment="band 1">
        <r>  0.2764  0.0010  0.0441  0.0749  0.0000  0.0000  0.0000  0.0000  0.0000 </r>
       </set>
       <set comment="band 2">
        <r>  0.1300  0.0503  0.1754  0.0083  0.0000  0.0000  0.0000  0.0000  0.0000 </r>
       </set>
       <set comment="band 3">
        <r>  0.1243  0.0562  0.0167  0.1993  0.0000  0.0000  0.0000  0.0000  0.0000 </r>
       </set>
       <set comment="band 4">
        <r>  0.0000  0.3055  0.1145  0.0382  0.0000  0.0000  0.0000  0.0000  0.0000 </r>
       </set>
       <set comment="band 5">
        <r>  0.0925  0.0019  0.0039  0.0541  0.0000  0.0000  0.0000  0.0000  0.0000 </r>
       </set>
       <set comment="band 6">
        <r>  0.0000  0.0966  0.0364  0.0122  0.0000  0.0000  0.0000  0.0000  0.0000 </r>
       </set>
      </set>
      <set comment="kpoint 104">
       <set comment="band 1">
        <r>  0.2561  0.0000  0.0382  0.1090  0.0000  0.0000  0.0000  0.0000  0.0000 </r>
       </set>
       <set comment="band 2">
        <r>  0.0784  0.0768  0.1943  0.0004  0.0000  0.0000  0.0000  0.0000  0.0000 </r>
       </set>
       <set comment="band 3">
        <r>  0.2053  0.0328  0.0045  0.1565  0.0000  0.0000  0.0000  0.0000  0.0000 </r>
       </set>
       <set comment="band 4">
        <r>  0.0000  0.3032  0.1137  0.0379  0.0000  0.0000  0.0000  0.0000  0.0000 </r>
       </set>
       <set comment="band 5">
        <r>  0.1205  0.0002  0.0043  0.0233  0.0000  0.0000  0.0000  0.0000  0.0000 </r>
       </set>
       <set comment="band 6">
        <r>  0.0003  0.0251  0.0592  0.1394  0.0000  0.0000  0.0000  0.0000  0.0000 </r>
       </set>
      </set>
      <set comment="kpoint 105">
       <set comment="band 1">
        <r>  0.2918  0.0202  0.0435  0.0404  0.0000  0.0000  0.0000  0.0000  0.0000 </r>
       </set>
       <set comment="band 2">
        <r>  0.1472  0.0155  0.1741  0.0309  0.0000  0.0000  0.0000  0.0000  0.0000 </r>
       </set>
       <set comment="band 3">
        <r>  0.0749  0.1061  0.0970  0.2122  0.0000  0.0000  0.0000  0.0000  0.0000 </r>
       </set>
       <set comment="band 4">
        <r>  0.0000  0.3085  0.0000  0.1542  0.0000  0.0000  0.0000  0.0000  0.0000 </r>
       </set>
       <set comment="band 5">
        <r>  0.0419  0.0051  0.0138  0.0103  0.0000  0.0000  0.0000  0.0000  0.0000 </r>
       </set>
       <set comment="band 6">
        <r>  0.0000  0.0994  0.0000  0.0497  0.0000  0.0000  0.0000  0.0000  0.0000 </r>
       </set>
      </set>
      <set comment="kpoint 106">
       <set comment="band 1">
        <r>  0.2820  0.0117  0.0346  0.0726  0.0000  0.0000  0.0000  0.0000  0.0000 </r>
       </set>
       <set comment="band 2">
        <r>  0.1396  0.0256  0.1842  0.0143  0.0000  0.0000  0.0000  0.0000  0.0000 </r>
       </set>
       <set comment="band 3">
        <r>  0.1173  0.0435  0.0364  0.2547  0.0000  0.0000  0.0000  0.0000  0.0000 </r>
       </set>
       <set comment="band 4">
        <r>  0.0241  0.2334  0.0453  0.0283  0.0000  0.0000  0.0000  0.0000  0.0000 </r>
       </set>
       <set comment="band 5">
        <r>  0.0084  0.2245  0.0373  0.0159  0.0000  0.0000  0.0000  0.0000  0.0000 </r>
       </set>
       <set comment="band 6">
        <r>  0.0698  0.0219  0.0159  0.0016  0.0000  0.0000  0.0000  0.0000  0.0000 </r>
       </set>
      </set>
      <set comment="kpoint 107">
       <set comment="band 1">
        <r>  0.3052  0.0026  0.0113  0.1051  0.0000  0.0000  0.0000  0.0000  0.0000 </r>
       </set>
       <set comment="band 2">
        <r>  0.0786  0.0423  0.2083  0.0106  0.0000  0.0000  0.0000  0.0000  0.0000 </r>
       </set>
       <set comment="band 3">
        <r>  0.1554  0.0657  0.0216  0.1621  0.0000  0.0000  0.0000  0.0000  0.0000 </r>
       </set>
       <set comment="band 4">
        <r>  0.0540  0.1891  0.0593  0.0507  0.0000  0.0000  0.0000  0.0000  0.0000 </r>
       </set>
       <set comment="band 5">
        <r>  0.0466  0.1448  0.0532  0.0014  0.0000  0.0000  0.0000  0.0000  0.0000 </r>
       </set>
       <set comment="band 6">
        <r>  0.0287  0.1046  0.0073  0.0337  0.0000  0.0000  0.0000  0.0000  0.0000 </r>
       </set>
      </set>
      <set comment="kpoint 108">
       <set comment="band 1">
        <r>  0.3252  0.0293  0.0098  0.0587  0.0000  0.0000  0.0000  0.0000  0.0000 </r>
       </set>
       <set comment="band 2">
        <r>  0.0885  0.0154  0.2077  0.0309  0.0000  0.0000  0.0000  0.0000  0.0000 </r>
       </set>
       <set comment="band 3">
        <r>  0.1183  0.0706  0.0696  0.1412  0.0000  0.0000  0.0000  0.0000  0.0000 </r>
       </set>
       <set comment="band 4">
        <r>  0.0000  0.3028  0.0000  0.1514  0.0000  0.0000  0.0000  0.0000  0.0000 </r>
       </set>
       <set comment="band 5">
        <r>  0.1004  0.0043  0.0253  0.0085  0.0000  0.0000  0.0000  0.0000  0.0000 </r>
       </set>
       <set comment="band 6">
        <r>  0.0000  0.0987  0.0000  0.0505  0.0000  0.0000  0.0000  0.0000  0.0000 </r>
       </set>
      </set>
      <set comment="kpoint 109">
       <set comment="band 1">
        <r>  0.3015  0.0110  0.0662  0.0221  0.0000  0.0000  0.0000  0.0000  0.0000 </r>
       </set>
       <set comment="band 2">
        <r>  0.1480  0.0241  0.1444  0.0481  0.0000  0.0000  0.0000  0.0000  0.0000 </r>
       </set>
       <set comment="band 3">
        <r>  0.0000  0.1654  0.0389  0.3960  0.0000  0.0000  0.0000  0.0000  0.0000 </r>
       </set>
       <set comment="band 4">
        <r>  0.0000  0.3682  0.1612  0.0709  0.0000  0.0000  0.0000  0.0000  0.0000 </r>
       </set>
       <set comment="band 5">
        <r>  0.0000  0.0005  0.0032  0.0129  0.0000  0.0000  0.0000  0.0000  0.0000 </r>
       </set>
       <set comment="band 6">
        <r>  0.0000  0.0142  0.0024  0.0000  0.0000  0.0000  0.0000  0.0000  0.0000 </r>
       </set>
      </set>
      <set comment="kpoint 110">
       <set comment="band 1">
        <r>  0.3535  0.0016  0.0309  0.0371  0.0000  0.0000  0.0000  0.0000  0.0000 </r>
       </set>
       <set comment="band 2">
        <r>  0.0874  0.0365  0.1808  0.0383  0.0000  0.0000  0.0000  0.0000  0.0000 </r>
       </set>
       <set comment="band 3">
        <r>  0.0663  0.0874  0.0372  0.2521  0.0000  0.0000  0.0000  0.0000  0.0000 </r>
       </set>
       <set comment="band 4">
        <r>  0.0000  0.3249  0.1218  0.0406  0.0000  0.0000  0.0000  0.0000  0.0000 </r>
       </set>
       <set comment="band 5">
        <r>  0.0509  0.0088  0.0001  0.0623  0.0000  0.0000  0.0000  0.0000  0.0000 </r>
       </set>
       <set comment="band 6">
        <r>  0.0000  0.0843  0.0317  0.0106  0.0000  0.0000  0.0000  0.0000  0.0000 </r>
       </set>
      </set>
     </set>
    </set>
   </array>
  </projected>
 </calculation>
 <structure name="finalpos" >
  <crystal>
   <varray name="basis" >
    <v>       2.36956600       0.00000000       1.36806900 </v>
    <v>       0.78985500       2.23404800       1.36806900 </v>
    <v>       0.00000000       0.00000000       2.73613900 </v>
   </varray>
   <i name="volume">     14.48436519 </i>
   <varray name="rec_basis" >
    <v>       0.42201821      -0.14920592       0.00000000 </v>
    <v>       0.00000000       0.44761796       0.00000000 </v>
    <v>      -0.21100903      -0.14920596       0.36547851 </v>
   </varray>
  </crystal>
  <varray name="positions" >
   <v>       0.00000000       0.00000000       0.00000000 </v>
  </varray>
 </structure>
</modeling>
